/*--------------------------------*- C++ -*----------------------------------*\
| =========                 |                                                 |
| \\      /  F ield         | foam-extend: Open Source CFD                    |
|  \\    /   O peration     | Version:     4.0                                |
|   \\  /    A nd           | Web:         http://www.foam-extend.org         |
|    \\/     M anipulation  |                                                 |
\*---------------------------------------------------------------------------*/
FoamFile
{
    version     2.0;
    format      ascii;
    class       volScalarField;
    location    "0.011";
    object      h;
}
// * * * * * * * * * * * * * * * * * * * * * * * * * * * * * * * * * * * * * //

dimensions      [0 1 0 0 0 0 0];

internalField   nonuniform List<scalar> 
176451
(
1.00057e-05
9.99828e-06
9.99572e-06
9.9976e-06
9.99887e-06
1.00017e-05
9.99747e-06
9.99891e-06
1.00019e-05
1e-05
1.00015e-05
1.00054e-05
1.00001e-05
9.99945e-06
9.99725e-06
9.99808e-06
1.00003e-05
9.99867e-06
1.00041e-05
9.99715e-06
1.00003e-05
9.99992e-06
9.99913e-06
1.00017e-05
1.00026e-05
1.00019e-05
1.00019e-05
9.99896e-06
9.99776e-06
1.00019e-05
9.99788e-06
1.00007e-05
1.0001e-05
9.99784e-06
9.9966e-06
1.00041e-05
1.00045e-05
1.00011e-05
9.99823e-06
1.00004e-05
9.99652e-06
1.00042e-05
9.9958e-06
9.99995e-06
1.00007e-05
1.00006e-05
1.00002e-05
9.99946e-06
1.00006e-05
1.00031e-05
1.00036e-05
9.99603e-06
1.00002e-05
9.99892e-06
9.99945e-06
1.00018e-05
9.99996e-06
1.0001e-05
9.99783e-06
1.00018e-05
1.00025e-05
9.99906e-06
9.99584e-06
1.00005e-05
1.00001e-05
1.00046e-05
1.00009e-05
1.00016e-05
1.00022e-05
9.9986e-06
9.99816e-06
1.00007e-05
1.00009e-05
1.00017e-05
1.00033e-05
1.00014e-05
1.0003e-05
1.0001e-05
9.99941e-06
9.99554e-06
9.99684e-06
1.00039e-05
9.99836e-06
9.99478e-06
1.00028e-05
1.00008e-05
9.99742e-06
1.00026e-05
1.00033e-05
1.00001e-05
1.00026e-05
9.99796e-06
1.00054e-05
9.99899e-06
1.00007e-05
9.99624e-06
9.9974e-06
1.00003e-05
1.00053e-05
9.99454e-06
1.00023e-05
9.99909e-06
1.00032e-05
9.99571e-06
1.00008e-05
9.99925e-06
1.00026e-05
1.00004e-05
1.00017e-05
1.00032e-05
1.00044e-05
1.00005e-05
1.00028e-05
9.99911e-06
1.00022e-05
1.00043e-05
1.00031e-05
9.99725e-06
1.00033e-05
1.00022e-05
1.00014e-05
9.9951e-06
9.99864e-06
9.99647e-06
1.00005e-05
9.99994e-06
9.99814e-06
1.00023e-05
9.99773e-06
1.00012e-05
1.00027e-05
1.00009e-05
9.9991e-06
1.00023e-05
1.00031e-05
9.99662e-06
1.00018e-05
9.99937e-06
1.00007e-05
1.00005e-05
1.00018e-05
9.99549e-06
1.00022e-05
1.00031e-05
9.99806e-06
9.99805e-06
9.99864e-06
1.0002e-05
9.99833e-06
9.99621e-06
1.0004e-05
1.00004e-05
9.99688e-06
1.00026e-05
9.99748e-06
1.00004e-05
9.99718e-06
1.0002e-05
1.00008e-05
9.99999e-06
1.00009e-05
9.99979e-06
9.99531e-06
9.99914e-06
9.99884e-06
1.00015e-05
1.00031e-05
1.00003e-05
9.99718e-06
1.0003e-05
9.99766e-06
9.99551e-06
1.00046e-05
1.00011e-05
9.99957e-06
9.9972e-06
1.00053e-05
9.99673e-06
9.99873e-06
1.00027e-05
9.99935e-06
1.00022e-05
9.99878e-06
9.99973e-06
9.99885e-06
1.00002e-05
9.99945e-06
1.00008e-05
1.00056e-05
1.00042e-05
1.00025e-05
9.99795e-06
9.99337e-06
9.98959e-06
9.98722e-06
9.9868e-06
9.98815e-06
9.99068e-06
9.99376e-06
9.9967e-06
9.9992e-06
1.0001e-05
1.00024e-05
1.00035e-05
1.00045e-05
1.00055e-05
1.00065e-05
1.00074e-05
1.0008e-05
1.00079e-05
1.00069e-05
1.00049e-05
1.00019e-05
9.99834e-06
9.99468e-06
9.99174e-06
9.99002e-06
9.98978e-06
9.99099e-06
9.99322e-06
9.99589e-06
9.99829e-06
1.00001e-05
1.00013e-05
1.00019e-05
1.00022e-05
1.00025e-05
1.00029e-05
1.00032e-05
1.00031e-05
1.00024e-05
1.00013e-05
9.99962e-06
9.99773e-06
9.99593e-06
9.99457e-06
9.99375e-06
9.99354e-06
9.99389e-06
9.99461e-06
9.99556e-06
9.99665e-06
9.9978e-06
9.99904e-06
1.00002e-05
1.00013e-05
1.00023e-05
1.00029e-05
1.00034e-05
1.00038e-05
1.00042e-05
1.00046e-05
1.00052e-05
1.00056e-05
1.00058e-05
1.00055e-05
1.00046e-05
1.0003e-05
1.00011e-05
9.99895e-06
9.99694e-06
9.99531e-06
9.99447e-06
9.99443e-06
9.99513e-06
9.99641e-06
9.99795e-06
9.99944e-06
1.00006e-05
1.00013e-05
1.00016e-05
1.00018e-05
1.00019e-05
1.00023e-05
1.00029e-05
1.00034e-05
1.00036e-05
1.00033e-05
1.00025e-05
1.00012e-05
9.9996e-06
9.99796e-06
9.99659e-06
9.99547e-06
9.99468e-06
9.99416e-06
9.99395e-06
9.99383e-06
9.9937e-06
9.99351e-06
9.99334e-06
9.99312e-06
9.99294e-06
9.99285e-06
9.99298e-06
9.99326e-06
9.99366e-06
9.99423e-06
9.99494e-06
9.99562e-06
9.99611e-06
9.99633e-06
9.99628e-06
9.99593e-06
9.99542e-06
9.99498e-06
9.99484e-06
9.99505e-06
9.99559e-06
9.99642e-06
9.99737e-06
9.99816e-06
9.99857e-06
9.99854e-06
9.99823e-06
9.99777e-06
9.9974e-06
9.99739e-06
9.99789e-06
9.99879e-06
9.99989e-06
1.00011e-05
1.00022e-05
1.00032e-05
1.0004e-05
1.00046e-05
1.00051e-05
1.00054e-05
1.00055e-05
1.00054e-05
1.00053e-05
1.0005e-05
1.00049e-05
1.00048e-05
1.00049e-05
1.00051e-05
1.00054e-05
1.00057e-05
1.00057e-05
1.00052e-05
1.00042e-05
1.00027e-05
1.00007e-05
9.99839e-06
9.99615e-06
9.99401e-06
9.99207e-06
9.99047e-06
9.98934e-06
9.98871e-06
9.9886e-06
9.98905e-06
9.99002e-06
9.99148e-06
9.99336e-06
9.9957e-06
9.99842e-06
1.00014e-05
1.00041e-05
1.00062e-05
1.00072e-05
1.0007e-05
1.00054e-05
1.00031e-05
1.00006e-05
9.99842e-06
9.99685e-06
9.99606e-06
9.99599e-06
9.9964e-06
9.99694e-06
9.99744e-06
9.99777e-06
9.99793e-06
9.99792e-06
9.99791e-06
9.99809e-06
9.99853e-06
9.99918e-06
1e-05
1.0001e-05
1.00019e-05
1.00028e-05
1.00035e-05
1.00041e-05
1.00046e-05
1.00048e-05
1.00049e-05
1.00047e-05
1.00044e-05
1.00039e-05
1.00032e-05
1.00023e-05
1.00013e-05
1.00002e-05
9.99915e-06
9.9982e-06
9.99745e-06
9.99687e-06
9.99653e-06
9.99643e-06
9.99659e-06
9.99695e-06
9.99753e-06
9.99828e-06
9.99906e-06
9.99959e-06
9.99972e-06
9.9994e-06
9.99869e-06
9.99773e-06
9.99681e-06
9.99621e-06
9.99604e-06
9.99624e-06
9.99679e-06
9.99757e-06
9.99844e-06
9.99918e-06
9.99969e-06
9.9999e-06
9.99978e-06
9.99934e-06
9.99876e-06
9.99826e-06
9.99801e-06
9.9981e-06
9.9986e-06
9.9995e-06
1.00007e-05
1.0002e-05
1.00032e-05
1.00043e-05
1.00051e-05
1.00055e-05
1.00054e-05
1.00047e-05
1.00037e-05
1.00022e-05
1.00006e-05
9.99914e-06
9.99807e-06
9.99734e-06
9.99707e-06
9.99712e-06
9.99732e-06
9.99752e-06
9.99778e-06
9.99805e-06
9.99821e-06
9.99806e-06
9.99758e-06
9.99664e-06
9.99536e-06
9.99383e-06
9.99264e-06
9.99215e-06
9.99259e-06
9.99396e-06
9.99608e-06
9.9987e-06
1.00014e-05
1.00039e-05
1.00059e-05
1.00074e-05
1.00083e-05
1.00086e-05
1.00085e-05
1.0008e-05
1.00073e-05
1.00065e-05
1.00058e-05
1.00051e-05
1.00046e-05
1.0004e-05
1.00036e-05
1.00031e-05
1.00027e-05
1.00022e-05
1.00019e-05
1.00018e-05
1.00018e-05
1.00022e-05
1.00027e-05
1.00034e-05
1.00038e-05
1.00039e-05
1.00037e-05
1.00031e-05
1.00023e-05
1.00014e-05
1.00006e-05
1.00002e-05
9.99986e-06
9.99972e-06
9.99973e-06
9.99984e-06
9.99995e-06
1.00001e-05
1.00002e-05
1.00005e-05
1.0001e-05
1.00015e-05
1.0002e-05
1.00025e-05
1.00027e-05
1.00026e-05
1.00021e-05
1.00015e-05
1.00006e-05
9.9997e-06
9.99891e-06
9.99821e-06
9.99758e-06
9.99693e-06
9.99647e-06
9.99624e-06
9.99627e-06
9.99664e-06
9.99747e-06
9.99875e-06
1.00002e-05
1.00018e-05
1.00032e-05
1.00043e-05
1.00047e-05
1.00046e-05
1.00038e-05
1.00023e-05
1.00004e-05
9.9984e-06
9.99662e-06
9.99537e-06
9.99488e-06
9.99509e-06
9.99578e-06
9.99674e-06
9.99776e-06
9.9987e-06
9.99938e-06
9.99981e-06
1e-05
1e-05
9.99983e-06
9.99971e-06
9.99991e-06
1.00006e-05
1.00018e-05
1.00034e-05
1.00049e-05
1.0006e-05
1.00061e-05
1.00052e-05
1.00035e-05
1.00013e-05
9.99897e-06
9.99703e-06
9.99577e-06
9.99515e-06
9.99503e-06
9.99531e-06
9.99595e-06
9.99699e-06
9.99836e-06
1e-05
1.00018e-05
1.00034e-05
1.00044e-05
1.00045e-05
1.0004e-05
1.00028e-05
1.00014e-05
1e-05
9.99903e-06
9.99839e-06
9.99799e-06
9.99771e-06
9.99745e-06
9.99712e-06
9.99665e-06
9.99612e-06
9.99564e-06
9.99533e-06
9.99524e-06
9.99551e-06
9.99614e-06
9.99706e-06
9.99802e-06
9.99887e-06
9.99944e-06
9.99968e-06
9.99956e-06
9.99922e-06
9.99882e-06
9.99847e-06
9.99818e-06
9.998e-06
9.99796e-06
9.99805e-06
9.99824e-06
9.99858e-06
9.99912e-06
9.99988e-06
1.00007e-05
1.00016e-05
1.00025e-05
1.00033e-05
1.00039e-05
1.00044e-05
1.00048e-05
1.00051e-05
1.00053e-05
1.00053e-05
1.0005e-05
1.00044e-05
1.00034e-05
1.00019e-05
1.00003e-05
9.99864e-06
9.99728e-06
9.99652e-06
9.9966e-06
9.99757e-06
9.99923e-06
1.00014e-05
1.00036e-05
1.00055e-05
1.00066e-05
1.00069e-05
1.00061e-05
1.00045e-05
1.00021e-05
9.99957e-06
9.99729e-06
9.99565e-06
9.9947e-06
9.99467e-06
9.99533e-06
9.99634e-06
9.99729e-06
9.99777e-06
9.99762e-06
9.99687e-06
9.99569e-06
9.99476e-06
9.99446e-06
9.99516e-06
9.99682e-06
9.99904e-06
1.00014e-05
1.00034e-05
1.00045e-05
1.00046e-05
1.00039e-05
1.00028e-05
1.00013e-05
9.99985e-06
9.99846e-06
9.9973e-06
9.9962e-06
9.99547e-06
9.99513e-06
9.99529e-06
9.99595e-06
9.99704e-06
9.99854e-06
1.00001e-05
1.00017e-05
1.0003e-05
1.00039e-05
1.00044e-05
1.00043e-05
1.00038e-05
1.0003e-05
1.00022e-05
1.00014e-05
1.00011e-05
1.00011e-05
1.00013e-05
1.00015e-05
1.00014e-05
1.0001e-05
1.00004e-05
9.9997e-06
9.99929e-06
9.99927e-06
9.99964e-06
1.00003e-05
1.00012e-05
1.00021e-05
1.00029e-05
1.00035e-05
1.00039e-05
1.00042e-05
1.00043e-05
1.0004e-05
1.00033e-05
1.00023e-05
1.00011e-05
9.99993e-06
9.99917e-06
9.99901e-06
9.99938e-06
1.00001e-05
1.00008e-05
1.00013e-05
1.00014e-05
1.0001e-05
1.00004e-05
9.99968e-06
9.99914e-06
9.99881e-06
9.99876e-06
9.99889e-06
9.99909e-06
9.99931e-06
9.99958e-06
9.99986e-06
1.00001e-05
1.00002e-05
1.00002e-05
9.99989e-06
9.99932e-06
9.99857e-06
9.99794e-06
9.99755e-06
9.99765e-06
9.99821e-06
9.99911e-06
1.00001e-05
1.0001e-05
1.00014e-05
1.00011e-05
1.00003e-05
9.99925e-06
9.99813e-06
9.99724e-06
9.99681e-06
9.99696e-06
9.99767e-06
9.99873e-06
9.99999e-06
1.00012e-05
1.00023e-05
1.00029e-05
1.00031e-05
1.00027e-05
1.00019e-05
1.00007e-05
9.9993e-06
9.99809e-06
9.99725e-06
9.99695e-06
9.99732e-06
9.99832e-06
9.99978e-06
1.00013e-05
1.00027e-05
1.00037e-05
1.00044e-05
1.00047e-05
1.00049e-05
1.00052e-05
1.00056e-05
1.00061e-05
1.00062e-05
1.00059e-05
1.00048e-05
1.00029e-05
1.00002e-05
9.99718e-06
9.99428e-06
9.99203e-06
9.99096e-06
9.99142e-06
9.99344e-06
9.99658e-06
1.00004e-05
1.00039e-05
1.00068e-05
1.00083e-05
1.00083e-05
1.00069e-05
1.00046e-05
1.00017e-05
9.99871e-06
9.99603e-06
9.9938e-06
9.9921e-06
9.99095e-06
9.99045e-06
9.99065e-06
9.99161e-06
9.99342e-06
9.99596e-06
9.99901e-06
1.0002e-05
1.00045e-05
1.0006e-05
1.00064e-05
1.00057e-05
1.00041e-05
1.00022e-05
1.00003e-05
9.99873e-06
9.99755e-06
9.99687e-06
9.99657e-06
9.99646e-06
9.99644e-06
9.99643e-06
9.99634e-06
9.99614e-06
9.99598e-06
9.99606e-06
9.99658e-06
9.99761e-06
9.99921e-06
1.00012e-05
1.00032e-05
1.00049e-05
1.0006e-05
1.00063e-05
1.00058e-05
1.00045e-05
1.00029e-05
1.00015e-05
1.00002e-05
9.99934e-06
9.9989e-06
9.99866e-06
9.99847e-06
9.99807e-06
9.99745e-06
9.99655e-06
9.99562e-06
9.99469e-06
9.99414e-06
9.9941e-06
9.99459e-06
9.99559e-06
9.997e-06
9.99869e-06
1.00004e-05
1.00018e-05
1.00029e-05
1.00034e-05
1.00034e-05
1.00029e-05
1.00021e-05
1.00013e-05
1.00005e-05
9.99978e-06
9.9993e-06
9.999e-06
9.99886e-06
9.99874e-06
9.99868e-06
9.99864e-06
9.99861e-06
9.99853e-06
9.99854e-06
9.99872e-06
9.99906e-06
9.9995e-06
1.00001e-05
1.00008e-05
1.00015e-05
1.00023e-05
1.00029e-05
1.00032e-05
1.00031e-05
1.00026e-05
1.00018e-05
1.00006e-05
9.99938e-06
9.99817e-06
9.99721e-06
9.99665e-06
9.99649e-06
9.9967e-06
9.99726e-06
9.99808e-06
9.99896e-06
9.99975e-06
1.00003e-05
1.00005e-05
1.00003e-05
9.99974e-06
9.99908e-06
9.99836e-06
9.99776e-06
9.99739e-06
9.99738e-06
9.99778e-06
9.9985e-06
9.99945e-06
1.00004e-05
1.00012e-05
1.00017e-05
1.00017e-05
1.00013e-05
1.00004e-05
9.99931e-06
9.9983e-06
9.99767e-06
9.99765e-06
9.99826e-06
9.9994e-06
1.00008e-05
1.00022e-05
1.00033e-05
1.00037e-05
1.00035e-05
1.00027e-05
1.00016e-05
1.00006e-05
1e-05
9.9999e-06
1.00004e-05
1.00013e-05
1.00023e-05
1.00033e-05
1.00038e-05
1.0004e-05
1.00038e-05
1.00033e-05
1.00027e-05
1.00022e-05
1.00017e-05
1.00014e-05
1.00013e-05
1.00012e-05
1.00011e-05
1.0001e-05
1.00008e-05
1.00005e-05
9.99992e-06
9.99907e-06
9.99806e-06
9.99697e-06
9.99592e-06
9.99506e-06
9.9946e-06
9.9946e-06
9.99504e-06
9.9959e-06
9.99703e-06
9.9983e-06
9.99937e-06
1.00001e-05
1.00005e-05
1.00004e-05
1.00002e-05
9.99981e-06
9.9997e-06
9.99996e-06
1.00006e-05
1.00014e-05
1.00024e-05
1.00032e-05
1.00037e-05
1.00038e-05
1.00037e-05
1.00033e-05
1.00029e-05
1.00025e-05
1.00023e-05
1.00023e-05
1.00023e-05
1.00022e-05
1.0002e-05
1.00016e-05
1.00008e-05
9.99978e-06
9.99862e-06
9.99749e-06
9.99657e-06
9.99606e-06
9.99606e-06
9.99648e-06
9.99713e-06
9.99785e-06
9.99846e-06
9.99893e-06
9.9992e-06
9.99944e-06
9.99979e-06
1.00004e-05
1.0001e-05
1.00018e-05
1.00023e-05
1.00026e-05
1.00024e-05
1.00017e-05
1.00007e-05
9.99969e-06
9.99882e-06
9.99833e-06
9.99834e-06
9.99881e-06
9.9995e-06
1.00002e-05
1.00009e-05
1.00012e-05
1.00013e-05
1.00012e-05
1.00009e-05
1.00007e-05
1.00006e-05
1.00007e-05
1.0001e-05
1.00015e-05
1.00021e-05
1.00026e-05
1.00029e-05
1.00029e-05
1.00025e-05
1.00019e-05
1.00012e-05
1.00005e-05
9.99988e-06
9.99972e-06
1e-05
1.00007e-05
1.00016e-05
1.00024e-05
1.00029e-05
1.00028e-05
1.00021e-05
1.00009e-05
9.9994e-06
9.99797e-06
9.99674e-06
9.99611e-06
9.99607e-06
9.99651e-06
9.99722e-06
9.99798e-06
9.99869e-06
9.99928e-06
9.99974e-06
1.00002e-05
1.00007e-05
1.00013e-05
1.0002e-05
1.00027e-05
1.00034e-05
1.00039e-05
1.0004e-05
1.0004e-05
1.00035e-05
1.00028e-05
1.00019e-05
1.00009e-05
9.99974e-06
9.99866e-06
9.99763e-06
9.99698e-06
9.99664e-06
9.99671e-06
9.99708e-06
9.9977e-06
9.99843e-06
9.99906e-06
9.99945e-06
9.99959e-06
9.99949e-06
9.99932e-06
9.99916e-06
9.99922e-06
9.99951e-06
1.00001e-05
1.00008e-05
1.00015e-05
1.00021e-05
1.00024e-05
1.00025e-05
1.00024e-05
1.0002e-05
1.00017e-05
1.00011e-05
1.00006e-05
1e-05
9.99947e-06
9.99886e-06
9.99841e-06
9.99805e-06
9.99795e-06
9.99802e-06
9.99829e-06
9.99863e-06
9.99898e-06
9.99924e-06
9.99944e-06
9.99958e-06
9.99976e-06
1e-05
1.00004e-05
1.0001e-05
1.00016e-05
1.00022e-05
1.00025e-05
1.00025e-05
1.00023e-05
1.00017e-05
1.00011e-05
1.00004e-05
9.99977e-06
9.99929e-06
9.99908e-06
9.99905e-06
9.99917e-06
9.99937e-06
9.99963e-06
9.99983e-06
9.99997e-06
1e-05
1.00001e-05
1.00001e-05
1.00003e-05
1.00005e-05
1.00008e-05
1.00011e-05
1.00014e-05
1.00016e-05
1.00017e-05
1.00015e-05
1.00012e-05
1.00007e-05
1e-05
9.99939e-06
9.99888e-06
9.99857e-06
9.99848e-06
9.99869e-06
9.99923e-06
1.00001e-05
1.0001e-05
1.0002e-05
1.00028e-05
1.00033e-05
1.00033e-05
1.00029e-05
1.00019e-05
1.00006e-05
9.99912e-06
9.9976e-06
9.99638e-06
9.99561e-06
9.99539e-06
9.99574e-06
9.99663e-06
9.99791e-06
9.99931e-06
1.00007e-05
1.00018e-05
1.00026e-05
1.00031e-05
1.00032e-05
1.00031e-05
1.00029e-05
1.00025e-05
1.00019e-05
1.00012e-05
1.00004e-05
9.99945e-06
9.99839e-06
9.99744e-06
9.9967e-06
9.99628e-06
9.99631e-06
9.99684e-06
9.99782e-06
9.99905e-06
1.00004e-05
1.00017e-05
1.00028e-05
1.00035e-05
1.00037e-05
1.00035e-05
1.0003e-05
1.00022e-05
1.00013e-05
1.00004e-05
9.99973e-06
9.99916e-06
9.99879e-06
9.9987e-06
9.99883e-06
9.99909e-06
9.9995e-06
1.00001e-05
1.00007e-05
1.00012e-05
1.00014e-05
1.00014e-05
1.0001e-05
1.00004e-05
9.99964e-06
9.99906e-06
9.99873e-06
9.99865e-06
9.99879e-06
9.99908e-06
9.99937e-06
9.99947e-06
9.99939e-06
9.99921e-06
9.99899e-06
9.99871e-06
9.99847e-06
9.99835e-06
9.99841e-06
9.99862e-06
9.99892e-06
9.99935e-06
9.99986e-06
1.00004e-05
1.00008e-05
1.00011e-05
1.00014e-05
1.00015e-05
1.00015e-05
1.00013e-05
1.00011e-05
1.00008e-05
1.00005e-05
1.00003e-05
1.00002e-05
1.00002e-05
1.00001e-05
1.00002e-05
1.00002e-05
1.00002e-05
1e-05
9.99992e-06
9.99987e-06
9.99984e-06
9.9999e-06
1e-05
1.00003e-05
1.00005e-05
1.00007e-05
1.00008e-05
1.00008e-05
1.00007e-05
1.00006e-05
1.00004e-05
1.00002e-05
9.99998e-06
9.99976e-06
9.9996e-06
9.99957e-06
9.99956e-06
9.99962e-06
9.99969e-06
9.99982e-06
9.99993e-06
1e-05
1e-05
1.00001e-05
1.00002e-05
1.00003e-05
1.00004e-05
1.00005e-05
1.00005e-05
1.00004e-05
1.00002e-05
1e-05
9.99982e-06
9.99968e-06
9.99957e-06
9.99957e-06
9.9996e-06
9.99971e-06
9.9998e-06
9.9999e-06
9.99994e-06
9.99994e-06
9.99984e-06
9.99974e-06
9.99957e-06
9.99947e-06
9.99941e-06
9.99947e-06
9.99956e-06
9.99972e-06
9.99992e-06
1.00002e-05
1.00005e-05
1.00008e-05
1.0001e-05
1.00012e-05
1.00013e-05
1.00012e-05
1.0001e-05
1.00006e-05
1.00001e-05
9.9996e-06
9.99919e-06
9.99893e-06
9.9988e-06
9.99888e-06
9.9991e-06
9.99942e-06
9.99977e-06
1.00001e-05
1.00004e-05
1.00006e-05
1.00007e-05
1.00007e-05
1.00006e-05
1.00005e-05
1.00003e-05
9.99999e-06
9.99964e-06
9.99933e-06
9.99911e-06
9.99899e-06
9.99901e-06
9.99923e-06
9.99961e-06
9.99998e-06
1.00003e-05
1.00006e-05
1.00008e-05
1.00009e-05
1.00009e-05
1.0001e-05
1.00012e-05
1.00012e-05
1.00012e-05
1.00012e-05
1.0001e-05
1.00007e-05
1.00002e-05
9.99977e-06
9.99934e-06
9.99896e-06
9.99869e-06
9.99861e-06
9.99871e-06
9.99893e-06
9.99927e-06
9.99968e-06
1.00001e-05
1.00005e-05
1.00007e-05
1.00008e-05
1.00007e-05
1.00005e-05
1.00002e-05
9.99987e-06
9.99966e-06
9.99953e-06
9.99951e-06
9.99962e-06
9.99985e-06
1.00001e-05
1.00003e-05
1.00005e-05
1.00007e-05
1.00008e-05
1.00007e-05
1.00005e-05
1.00003e-05
1e-05
9.99965e-06
9.99933e-06
9.99904e-06
9.99876e-06
9.99856e-06
9.99855e-06
9.99871e-06
9.99893e-06
9.99923e-06
9.9996e-06
1e-05
1.00004e-05
1.00007e-05
1.00009e-05
1.0001e-05
1.0001e-05
1.00007e-05
1.00004e-05
1.00001e-05
9.99988e-06
9.99968e-06
9.99961e-06
9.99965e-06
9.99969e-06
9.99972e-06
9.99971e-06
9.99965e-06
9.99948e-06
9.99924e-06
9.99901e-06
9.99885e-06
9.99874e-06
9.99874e-06
9.99886e-06
9.99909e-06
9.99933e-06
9.99954e-06
9.99972e-06
9.99987e-06
9.99994e-06
9.99998e-06
1e-05
1.00001e-05
1.00001e-05
1.00002e-05
1.00002e-05
1.00003e-05
1.00003e-05
1.00003e-05
1.00002e-05
1.00001e-05
1.00001e-05
1.00002e-05
1.00002e-05
1.00003e-05
1.00003e-05
1.00002e-05
1.00001e-05
9.99995e-06
9.99978e-06
9.99962e-06
9.99949e-06
9.99949e-06
9.99954e-06
9.99968e-06
9.99983e-06
1e-05
1.00002e-05
1.00002e-05
1.00002e-05
1.00003e-05
1.00002e-05
1.00001e-05
1e-05
9.99993e-06
9.99986e-06
9.99983e-06
9.99982e-06
9.9999e-06
9.99996e-06
1e-05
1.00001e-05
1.00002e-05
1.00003e-05
1.00004e-05
1.00004e-05
1.00004e-05
1.00003e-05
1.00002e-05
1e-05
9.99997e-06
9.99996e-06
1e-05
1.00001e-05
1.00002e-05
1.00002e-05
1.00002e-05
1.00002e-05
1.00002e-05
1.00001e-05
1e-05
9.99991e-06
9.99984e-06
9.9998e-06
9.99986e-06
9.99995e-06
1.00001e-05
1.00002e-05
1.00002e-05
1.00001e-05
1.00001e-05
9.99996e-06
9.99988e-06
9.99983e-06
9.99983e-06
9.99982e-06
9.99984e-06
9.99984e-06
9.99988e-06
9.9999e-06
9.99995e-06
1e-05
1.00001e-05
1.00001e-05
1e-05
9.99993e-06
9.99985e-06
9.99975e-06
9.99975e-06
9.99983e-06
9.99994e-06
1e-05
1.00001e-05
1.00001e-05
1e-05
9.99993e-06
9.99971e-06
9.99953e-06
9.99945e-06
9.99954e-06
9.99979e-06
1.00001e-05
1.00007e-05
1.00013e-05
1.00019e-05
1.00024e-05
1.00025e-05
1.0002e-05
1.00009e-05
9.9991e-06
9.99669e-06
9.99346e-06
9.98986e-06
9.9862e-06
9.9829e-06
9.98034e-06
9.97924e-06
9.98018e-06
9.98376e-06
9.99139e-06
1.00028e-05
1.00183e-05
1.00384e-05
1.00648e-05
1.00948e-05
1.0127e-05
1.01588e-05
1.01879e-05
1.02073e-05
1.02126e-05
1.02e-05
1.01619e-05
1.01012e-05
1.00198e-05
9.92062e-06
9.79585e-06
9.66406e-06
9.53159e-06
9.39892e-06
9.25556e-06
9.12045e-06
8.99869e-06
8.88555e-06
8.78012e-06
8.69862e-06
8.64721e-06
8.63713e-06
8.70477e-06
8.85695e-06
9.11106e-06
9.48931e-06
1.00627e-05
1.07546e-05
1.15334e-05
1.23829e-05
1.33596e-05
1.43272e-05
1.52631e-05
1.61921e-05
1.72368e-05
1.83061e-05
1.94247e-05
2.06497e-05
2.21138e-05
2.36993e-05
2.53902e-05
2.71655e-05
2.91332e-05
3.10988e-05
3.30218e-05
3.48734e-05
3.67758e-05
3.854e-05
4.01502e-05
4.16162e-05
4.30859e-05
4.44226e-05
4.5624e-05
4.6729e-05
4.7838e-05
4.88255e-05
4.9666e-05
5.03849e-05
5.10813e-05
5.16392e-05
5.20464e-05
5.23479e-05
5.26219e-05
5.2792e-05
5.28466e-05
5.28359e-05
5.28222e-05
5.27478e-05
5.25858e-05
5.23726e-05
5.2121e-05
5.17865e-05
5.13265e-05
5.08906e-05
5.03801e-05
4.98109e-05
4.91914e-05
4.85078e-05
4.77466e-05
4.69407e-05
4.61532e-05
4.5302e-05
4.44305e-05
4.34423e-05
4.24022e-05
4.12001e-05
3.99525e-05
3.85554e-05
3.71737e-05
3.56909e-05
3.42481e-05
3.26359e-05
3.09256e-05
2.88721e-05
2.66425e-05
2.40392e-05
2.14045e-05
1.87392e-05
1.66466e-05
1.5502e-05
1.60778e-05
1.88194e-05
2.29497e-05
2.79816e-05
3.25434e-05
3.59606e-05
3.59225e-05
3.11947e-05
2.47569e-05
2.34483e-05
3.85656e-05
5.16855e-05
5.99755e-05
6.68642e-05
7.13799e-05
7.36795e-05
7.43159e-05
7.4371e-05
7.41047e-05
7.33553e-05
7.22061e-05
7.09135e-05
6.98573e-05
6.87662e-05
6.80568e-05
6.75293e-05
6.71677e-05
6.71487e-05
6.72116e-05
6.74183e-05
6.76945e-05
6.80298e-05
6.83992e-05
6.87371e-05
6.90396e-05
6.92786e-05
6.93786e-05
6.9437e-05
6.94093e-05
6.93401e-05
6.91683e-05
6.90271e-05
6.8857e-05
6.87056e-05
6.85335e-05
6.8483e-05
6.83908e-05
6.8322e-05
6.83416e-05
6.83253e-05
6.83535e-05
6.83848e-05
6.83738e-05
6.84367e-05
6.84238e-05
6.8467e-05
6.84738e-05
6.85067e-05
6.85241e-05
6.84574e-05
6.84702e-05
6.84267e-05
6.84308e-05
6.84395e-05
6.84865e-05
6.84921e-05
6.84987e-05
6.85091e-05
6.85412e-05
6.85831e-05
6.86822e-05
6.87597e-05
6.88145e-05
6.88793e-05
6.89327e-05
6.89375e-05
6.8933e-05
6.8937e-05
6.89243e-05
6.88805e-05
6.88462e-05
6.88415e-05
6.88401e-05
6.88153e-05
6.88053e-05
6.88265e-05
6.88488e-05
6.88379e-05
6.88342e-05
6.88526e-05
6.88623e-05
6.88308e-05
6.88028e-05
6.87971e-05
6.87879e-05
6.87473e-05
6.87247e-05
6.87404e-05
6.87658e-05
6.87693e-05
6.87916e-05
6.88433e-05
6.88833e-05
6.88731e-05
6.88493e-05
6.88258e-05
6.87762e-05
6.86777e-05
6.85842e-05
6.85271e-05
6.85015e-05
6.84872e-05
6.85342e-05
6.86596e-05
6.88155e-05
6.89328e-05
6.90423e-05
6.91353e-05
6.91362e-05
6.89826e-05
6.87529e-05
6.84987e-05
6.82616e-05
6.80761e-05
6.80257e-05
6.81609e-05
6.84679e-05
6.88676e-05
6.93129e-05
6.97188e-05
6.99356e-05
6.98542e-05
6.94502e-05
6.873e-05
6.78746e-05
6.71495e-05
6.67789e-05
6.6948e-05
6.7899e-05
6.96553e-05
7.18328e-05
7.368e-05
7.45427e-05
7.41498e-05
7.11728e-05
6.27283e-05
4.7804e-05
2.97045e-05
2.36842e-05
2.43791e-05
2.68941e-05
2.78536e-05
2.84223e-05
2.89994e-05
2.84095e-05
2.6357e-05
2.39822e-05
2.24527e-05
2.17274e-05
2.12826e-05
2.13426e-05
2.20732e-05
2.31096e-05
2.41379e-05
2.51428e-05
2.62883e-05
2.75647e-05
2.89053e-05
3.01603e-05
3.1365e-05
3.26165e-05
3.3888e-05
3.51708e-05
3.64646e-05
3.77374e-05
3.89038e-05
4.00536e-05
4.10533e-05
4.19649e-05
4.27323e-05
4.34035e-05
4.40054e-05
4.45906e-05
4.51021e-05
4.5589e-05
4.59882e-05
4.62558e-05
4.63739e-05
4.6329e-05
4.61406e-05
4.57734e-05
4.53026e-05
4.46908e-05
4.40252e-05
4.31918e-05
4.22763e-05
4.12404e-05
4.02281e-05
3.91339e-05
3.81366e-05
3.71772e-05
3.63879e-05
3.56291e-05
3.49872e-05
3.44134e-05
3.39703e-05
3.35577e-05
3.32297e-05
3.29525e-05
3.2773e-05
3.25525e-05
3.23236e-05
3.20724e-05
3.18744e-05
3.16253e-05
3.13264e-05
3.11822e-05
3.07896e-05
3.04213e-05
2.98931e-05
2.94252e-05
2.87e-05
2.80473e-05
2.73173e-05
2.65907e-05
2.58632e-05
2.51421e-05
2.44081e-05
2.35348e-05
2.278e-05
2.19121e-05
2.097e-05
2.00304e-05
1.90179e-05
1.79865e-05
1.6981e-05
1.59129e-05
1.49094e-05
1.39682e-05
1.30853e-05
1.22753e-05
1.15197e-05
1.08209e-05
1.0225e-05
9.69193e-06
9.25102e-06
8.95965e-06
8.75805e-06
8.65293e-06
8.63908e-06
8.69911e-06
8.80941e-06
8.95465e-06
9.12562e-06
9.29459e-06
9.46869e-06
9.63331e-06
9.77885e-06
9.91147e-06
1.00134e-05
1.00978e-05
1.01597e-05
1.01955e-05
1.02134e-05
1.0215e-05
1.02026e-05
1.01782e-05
1.01483e-05
1.0114e-05
1.00803e-05
1.0048e-05
1.00206e-05
9.99925e-06
9.98361e-06
9.97333e-06
9.9688e-06
9.96867e-06
9.97165e-06
9.97679e-06
9.98284e-06
9.98888e-06
9.9943e-06
9.99883e-06
1.0002e-05
1.0004e-05
1.00049e-05
1.00049e-05
1.00043e-05
1.00033e-05
1.00021e-05
1.00007e-05
9.99945e-06
9.99836e-06
9.99754e-06
9.9971e-06
9.99716e-06
9.99765e-06
9.99832e-06
9.99902e-06
9.99962e-06
1.00001e-05
1.00003e-05
1.00004e-05
1.00006e-05
1.00009e-05
1.00013e-05
1.00016e-05
1.00018e-05
1.00019e-05
1.00016e-05
1.0001e-05
1.00002e-05
9.99929e-06
9.9984e-06
9.99772e-06
9.99749e-06
9.99781e-06
9.9986e-06
9.99971e-06
1.00009e-05
1.00019e-05
1.00024e-05
1.00024e-05
1.00019e-05
1.00011e-05
1.00002e-05
9.99948e-06
9.99921e-06
9.99938e-06
9.99982e-06
1.00004e-05
1.00008e-05
1.00011e-05
1.0001e-05
1.00007e-05
1.00001e-05
9.99954e-06
9.99899e-06
9.99857e-06
9.99837e-06
9.99841e-06
9.99857e-06
9.99883e-06
9.99916e-06
9.99949e-06
9.99969e-06
9.99973e-06
9.99968e-06
9.99959e-06
9.99946e-06
9.99933e-06
9.99929e-06
9.9994e-06
9.99957e-06
9.99976e-06
9.99996e-06
1.00001e-05
1.00002e-05
1.00001e-05
9.99992e-06
9.99973e-06
9.9996e-06
9.9996e-06
9.99984e-06
1.00004e-05
1.0001e-05
1.00017e-05
1.00021e-05
1.00022e-05
1.00017e-05
1.00008e-05
9.99974e-06
9.99882e-06
9.99805e-06
9.99757e-06
9.99741e-06
9.99763e-06
9.99815e-06
9.99887e-06
9.99966e-06
1.00004e-05
1.00008e-05
1.00009e-05
1.00006e-05
1e-05
9.99934e-06
9.99889e-06
9.99886e-06
9.99935e-06
1.00002e-05
1.00013e-05
1.00022e-05
1.00028e-05
1.00027e-05
1.00021e-05
1.00008e-05
9.99925e-06
9.99766e-06
9.99651e-06
9.99589e-06
9.99602e-06
9.99678e-06
9.99793e-06
9.99929e-06
1.00006e-05
1.00018e-05
1.00028e-05
1.00034e-05
1.00036e-05
1.00035e-05
1.0003e-05
1.00022e-05
1.00013e-05
1.00003e-05
9.99932e-06
9.99854e-06
9.99805e-06
9.99801e-06
9.99841e-06
9.99913e-06
9.99993e-06
1.00007e-05
1.00011e-05
1.00013e-05
1.00011e-05
1.00007e-05
1.00003e-05
9.99993e-06
9.99953e-06
9.99906e-06
9.99844e-06
9.99769e-06
9.99718e-06
9.99743e-06
9.99775e-06
9.99823e-06
9.99875e-06
9.99925e-06
9.99969e-06
9.99996e-06
1.00001e-05
1.00001e-05
1.00002e-05
1.00002e-05
1.00002e-05
1.00002e-05
1.00001e-05
9.99999e-06
9.9999e-06
9.99986e-06
9.99988e-06
9.99999e-06
1.00001e-05
1.00002e-05
1.00003e-05
1.00003e-05
1.00002e-05
1.00001e-05
9.99985e-06
9.99965e-06
9.9995e-06
9.99946e-06
9.99952e-06
9.99965e-06
9.99976e-06
9.99985e-06
9.99989e-06
9.99993e-06
9.99998e-06
1.00001e-05
1.00002e-05
1.00003e-05
1.00002e-05
1e-05
9.99979e-06
9.99965e-06
9.9996e-06
9.99965e-06
9.99975e-06
9.9999e-06
1e-05
1.00001e-05
1.00001e-05
1e-05
9.99998e-06
9.99993e-06
9.99991e-06
9.99994e-06
9.99995e-06
9.99994e-06
9.99992e-06
9.99996e-06
9.99999e-06
1e-05
1e-05
9.99993e-06
9.99976e-06
9.9996e-06
9.99951e-06
9.99954e-06
9.99963e-06
9.99977e-06
9.99994e-06
1.00001e-05
1.00002e-05
1.00003e-05
1.00002e-05
1.00001e-05
1e-05
1e-05
1e-05
9.99998e-06
9.99984e-06
9.99962e-06
9.99951e-06
9.99951e-06
9.9996e-06
9.99971e-06
9.99986e-06
1e-05
1.00001e-05
1.00001e-05
1.00002e-05
1.00002e-05
1.00001e-05
1e-05
9.99998e-06
9.99995e-06
9.99992e-06
9.99989e-06
9.9999e-06
9.99992e-06
9.99996e-06
1e-05
1.00001e-05
1.00002e-05
1.00003e-05
1.00002e-05
1.00002e-05
1.00002e-05
1.00002e-05
1.00001e-05
1e-05
9.99999e-06
9.99996e-06
9.99989e-06
9.99986e-06
9.9999e-06
9.99999e-06
1e-05
9.99999e-06
9.9999e-06
9.99984e-06
9.9998e-06
9.99988e-06
1e-05
1.00002e-05
1.00003e-05
1.00003e-05
1.00003e-05
1.00001e-05
9.99997e-06
9.99987e-06
9.99987e-06
9.99995e-06
1e-05
1e-05
9.99995e-06
9.99986e-06
9.99978e-06
9.99983e-06
1e-05
1.00004e-05
1.00009e-05
1.00014e-05
1.0001e-05
9.99901e-06
9.99485e-06
9.9882e-06
9.98137e-06
9.97774e-06
9.98229e-06
1.00025e-05
1.00385e-05
1.00946e-05
1.01542e-05
1.02135e-05
1.02441e-05
1.02219e-05
1.01377e-05
9.95099e-06
9.70515e-06
9.36272e-06
9.04227e-06
8.69398e-06
8.4852e-06
8.43263e-06
8.56841e-06
8.95428e-06
9.51298e-06
1.04761e-05
1.14929e-05
1.29603e-05
1.43577e-05
1.62235e-05
1.79502e-05
2.02415e-05
2.21752e-05
2.41513e-05
2.62569e-05
2.84803e-05
3.05987e-05
3.2713e-05
3.48201e-05
3.69732e-05
3.91384e-05
4.11409e-05
4.32354e-05
4.53741e-05
4.74643e-05
4.93789e-05
5.13574e-05
5.37262e-05
5.56842e-05
5.75207e-05
5.91349e-05
6.09754e-05
6.27088e-05
6.42112e-05
6.57034e-05
6.71003e-05
6.83819e-05
6.94335e-05
7.04858e-05
7.15804e-05
7.25378e-05
7.36482e-05
7.45827e-05
7.57241e-05
7.68484e-05
7.78155e-05
7.87476e-05
7.96401e-05
8.0286e-05
8.09382e-05
8.13126e-05
8.17983e-05
8.22291e-05
8.25743e-05
8.29845e-05
8.34894e-05
8.38905e-05
8.4368e-05
8.46121e-05
8.48698e-05
8.49763e-05
8.48879e-05
8.46807e-05
8.44107e-05
8.39723e-05
8.3388e-05
8.26882e-05
8.20103e-05
8.13364e-05
8.07587e-05
8.02469e-05
7.97732e-05
7.91803e-05
7.84197e-05
7.74184e-05
7.62977e-05
7.51056e-05
7.3957e-05
7.26698e-05
7.12328e-05
6.96785e-05
6.82719e-05
6.70317e-05
6.60033e-05
6.50475e-05
6.41069e-05
6.30669e-05
6.21144e-05
6.12525e-05
6.02801e-05
5.9215e-05
5.83969e-05
5.7754e-05
5.72503e-05
5.7264e-05
5.76388e-05
5.81752e-05
5.89068e-05
5.9858e-05
6.03501e-05
6.09026e-05
6.1306e-05
6.19101e-05
6.2265e-05
6.29331e-05
6.35497e-05
6.45872e-05
6.57885e-05
6.7197e-05
6.91849e-05
7.14032e-05
7.42454e-05
7.78312e-05
8.17237e-05
8.58431e-05
9.07118e-05
9.57206e-05
0.000100653
0.000106592
0.000111215
0.000114467
0.000114436
0.000114043
0.000111718
0.000107221
0.000102458
9.63207e-05
8.90943e-05
8.0834e-05
7.65337e-05
8.30895e-05
0.000110946
0.000175476
0.000251076
0.000302713
0.000307798
0.000357912
0.000345736
0.000365483
0.000344082
0.000367662
0.000399678
0.00036706
0.000317665
0.000342696
0.000336729
0.00033297
0.00038721
0.000344663
0.000355471
0.000346611
0.000358945
0.000364839
0.000351574
0.000352802
0.000350152
0.000358555
0.000359754
0.000355674
0.000325946
0.000363777
0.00034477
0.000332727
0.000318985
0.000331679
0.000329569
0.000344454
0.000331175
0.000366167
0.000379915
0.00035119
0.000362002
0.000362798
0.000351732
0.000357561
0.000340249
0.000361491
0.00036581
0.000359845
0.000347825
0.000345695
0.000346373
0.000362501
0.000351326
0.000349261
0.00034319
0.000364095
0.000342273
0.000340366
0.000348929
0.000348313
0.000344248
0.000346214
0.000346148
0.000338074
0.00032734
0.000360025
0.000403491
0.000342361
0.000324108
0.000345106
0.000339424
0.000341307
0.000329664
0.000334249
0.000335831
0.000360336
0.000362424
0.000325015
0.000338487
0.000380741
0.000359662
0.000337664
0.000323193
0.000330664
0.000339084
0.000350383
0.000355434
0.000343932
0.000368907
0.000375693
0.00034693
0.000342629
0.00033785
0.000362462
0.000347219
0.00035759
0.000329141
0.000323489
0.000336078
0.000333414
0.000328505
0.000326316
0.000364902
0.00034565
0.000337488
0.000373961
0.000379132
0.000316157
0.00035792
0.000371614
0.000338498
0.000339665