/*--------------------------------*- C++ -*----------------------------------*\
| =========                 |                                                 |
| \\      /  F ield         | foam-extend: Open Source CFD                    |
|  \\    /   O peration     | Version:     4.0                                |
|   \\  /    A nd           | Web:         http://www.foam-extend.org         |
|    \\/     M anipulation  |                                                 |
\*---------------------------------------------------------------------------*/
FoamFile
{
    version     2.0;
    format      ascii;
    class       volScalarField;
    location    "0.008";
    object      h;
}
// * * * * * * * * * * * * * * * * * * * * * * * * * * * * * * * * * * * * * //

dimensions      [0 1 0 0 0 0 0];

internalField   nonuniform List<scalar> 
176451
(
1.0006e-05
9.99959e-06
9.99473e-06
9.99969e-06
9.99996e-06
1.00017e-05
9.99841e-06
9.99906e-06
1.00014e-05
9.99851e-06
9.99995e-06
1.00047e-05
9.99959e-06
1.00004e-05
9.99933e-06
9.99712e-06
1.00003e-05
9.99787e-06
1.0003e-05
9.99891e-06
1.00008e-05
1.00003e-05
9.9993e-06
1.00009e-05
1.00017e-05
1.00009e-05
1.00027e-05
9.99913e-06
9.99885e-06
1.00014e-05
9.99675e-06
9.99988e-06
1.00015e-05
9.9985e-06
9.99796e-06
1.00041e-05
1.00026e-05
1.00014e-05
9.99935e-06
1.00004e-05
9.9978e-06
1.0006e-05
9.99712e-06
9.99988e-06
9.99986e-06
9.9996e-06
1.00005e-05
9.9985e-06
1.00016e-05
1.00013e-05
1.00059e-05
9.9967e-06
1.00002e-05
9.999e-06
9.99994e-06
1.00017e-05
1.00006e-05
1.00007e-05
9.99813e-06
9.99948e-06
1.00026e-05
9.99949e-06
9.99651e-06
1.00002e-05
9.9985e-06
1.00053e-05
9.9997e-06
1.00011e-05
1.00021e-05
9.9989e-06
9.99845e-06
1.00002e-05
1.00004e-05
1.00017e-05
1.00015e-05
1.00022e-05
1.00003e-05
1.00005e-05
1.00009e-05
9.99579e-06
9.99801e-06
1.00081e-05
9.99955e-06
9.9965e-06
9.99929e-06
9.99997e-06
9.99869e-06
9.99821e-06
1.00022e-05
9.99959e-06
1.00041e-05
9.99839e-06
1.00068e-05
9.99933e-06
1.00011e-05
9.99838e-06
9.99751e-06
1.00003e-05
1.00024e-05
9.99717e-06
1.00034e-05
9.99829e-06
1.00021e-05
9.99667e-06
1.00013e-05
9.99909e-06
1.0004e-05
1.00025e-05
1.00008e-05
1.00032e-05
1.00037e-05
9.99903e-06
1.00026e-05
9.99922e-06
9.99987e-06
1.00049e-05
1.00016e-05
9.99724e-06
1.00031e-05
1.00017e-05
1.00004e-05
9.99688e-06
9.99861e-06
9.9954e-06
1.00027e-05
1.00024e-05
9.997e-06
1.0002e-05
9.99681e-06
1.00008e-05
1.00022e-05
1.00047e-05
9.99886e-06
1.00002e-05
1.0002e-05
9.99785e-06
1.00066e-05
9.99746e-06
1.00003e-05
9.9994e-06
1.00008e-05
9.99682e-06
1.00034e-05
1.00028e-05
9.99694e-06
9.99959e-06
1.00001e-05
1.00016e-05
1.00009e-05
9.9961e-06
1.00053e-05
1.00006e-05
9.99848e-06
1.00021e-05
9.99661e-06
1.00005e-05
9.99726e-06
9.99926e-06
1.00013e-05
9.99885e-06
1.00016e-05
9.99951e-06
9.99787e-06
9.99974e-06
9.99739e-06
1.00024e-05
1.00028e-05
1.00014e-05
9.99673e-06
1.00034e-05
9.99822e-06
9.99518e-06
1.00029e-05
1.00012e-05
1.00017e-05
9.99778e-06
1.00081e-05
9.99648e-06
1.00004e-05
9.99918e-06
9.99983e-06
1.00019e-05
9.99685e-06
9.99852e-06
9.99903e-06
9.99999e-06
9.99937e-06
1.00001e-05
1.0004e-05
1.00013e-05
9.99841e-06
9.99609e-06
9.99368e-06
9.9917e-06
9.99066e-06
9.99087e-06
9.99228e-06
9.99441e-06
9.99684e-06
9.99908e-06
1.00009e-05
1.00022e-05
1.00031e-05
1.00038e-05
1.00043e-05
1.00046e-05
1.00046e-05
1.00044e-05
1.00038e-05
1.00028e-05
1.00015e-05
1.00003e-05
9.99917e-06
9.99836e-06
9.99801e-06
9.99818e-06
9.99885e-06
9.99982e-06
1.0001e-05
1.0002e-05
1.00029e-05
1.00033e-05
1.00034e-05
1.00033e-05
1.00034e-05
1.00038e-05
1.00046e-05
1.00058e-05
1.00073e-05
1.00085e-05
1.00091e-05
1.00089e-05
1.00078e-05
1.0006e-05
1.00037e-05
1.00015e-05
9.99958e-06
9.99815e-06
9.99745e-06
9.9973e-06
9.99764e-06
9.99825e-06
9.999e-06
9.99981e-06
1.00006e-05
1.00012e-05
1.00018e-05
1.00022e-05
1.00024e-05
1.00026e-05
1.00028e-05
1.0003e-05
1.00034e-05
1.00037e-05
1.00041e-05
1.00042e-05
1.00041e-05
1.00036e-05
1.00027e-05
1.00016e-05
1.00004e-05
9.99908e-06
9.99811e-06
9.99746e-06
9.99723e-06
9.99736e-06
9.99785e-06
9.99848e-06
9.99906e-06
9.9995e-06
9.99987e-06
1.00002e-05
1.00007e-05
1.00013e-05
1.00021e-05
1.00029e-05
1.00033e-05
1.00033e-05
1.00029e-05
1.00022e-05
1.00014e-05
1.00007e-05
1.00002e-05
9.99977e-06
9.99939e-06
9.99895e-06
9.99849e-06
9.99791e-06
9.99725e-06
9.99659e-06
9.9961e-06
9.99577e-06
9.99565e-06
9.99577e-06
9.99613e-06
9.9966e-06
9.9971e-06
9.99763e-06
9.9982e-06
9.99869e-06
9.99902e-06
9.99917e-06
9.99918e-06
9.99905e-06
9.99889e-06
9.99887e-06
9.99915e-06
9.99967e-06
1.00003e-05
1.0001e-05
1.00014e-05
1.00014e-05
1.00007e-05
9.99946e-06
9.99792e-06
9.9963e-06
9.99497e-06
9.99423e-06
9.99432e-06
9.99505e-06
9.99615e-06
9.99746e-06
9.99871e-06
9.99972e-06
1.00004e-05
1.00008e-05
1.00011e-05
1.0001e-05
1.00008e-05
1.00004e-05
1.00001e-05
9.99975e-06
9.99956e-06
9.99955e-06
9.99979e-06
1.00002e-05
1.00007e-05
1.00012e-05
1.00016e-05
1.00018e-05
1.00018e-05
1.00016e-05
1.00012e-05
1.00007e-05
1.00002e-05
9.99947e-06
9.99863e-06
9.99772e-06
9.99691e-06
9.99632e-06
9.99604e-06
9.99618e-06
9.99679e-06
9.99789e-06
9.99943e-06
1.00014e-05
1.00038e-05
1.00063e-05
1.00085e-05
1.001e-05
1.00104e-05
1.00095e-05
1.00075e-05
1.00048e-05
1.00021e-05
9.99969e-06
9.99799e-06
9.99707e-06
9.99687e-06
9.99714e-06
9.99755e-06
9.99789e-06
9.99804e-06
9.99798e-06
9.99773e-06
9.99748e-06
9.99742e-06
9.99766e-06
9.99816e-06
9.99889e-06
9.99975e-06
1.00007e-05
1.00015e-05
1.00021e-05
1.00027e-05
1.00032e-05
1.00035e-05
1.00035e-05
1.00034e-05
1.0003e-05
1.00024e-05
1.00015e-05
1.00006e-05
9.99952e-06
9.99847e-06
9.99752e-06
9.99679e-06
9.99628e-06
9.99595e-06
9.99584e-06
9.99601e-06
9.99651e-06
9.99737e-06
9.99865e-06
1.00003e-05
1.0002e-05
1.00035e-05
1.00043e-05
1.00044e-05
1.00037e-05
1.00023e-05
1.00006e-05
9.99888e-06
9.99749e-06
9.99657e-06
9.99629e-06
9.99669e-06
9.9977e-06
9.99904e-06
1.00005e-05
1.00016e-05
1.00023e-05
1.00023e-05
1.00018e-05
1.00011e-05
1.00004e-05
9.99983e-06
9.99968e-06
9.99995e-06
1.00005e-05
1.00012e-05
1.00018e-05
1.00024e-05
1.00027e-05
1.00027e-05
1.00025e-05
1.0002e-05
1.00014e-05
1.00005e-05
9.99963e-06
9.99882e-06
9.99828e-06
9.99796e-06
9.99794e-06
9.99812e-06
9.99837e-06
9.99857e-06
9.99881e-06
9.99909e-06
9.99934e-06
9.99947e-06
9.99947e-06
9.99925e-06
9.99882e-06
9.9982e-06
9.99769e-06
9.99748e-06
9.99768e-06
9.9982e-06
9.99899e-06
9.99993e-06
1.00008e-05
1.00016e-05
1.00021e-05
1.00025e-05
1.00025e-05
1.00022e-05
1.00017e-05
1.00011e-05
1.00004e-05
9.99979e-06
9.99949e-06
9.99953e-06
9.99989e-06
1.00004e-05
1.0001e-05
1.00014e-05
1.00016e-05
1.00016e-05
1.00014e-05
1.00011e-05
1.00008e-05
1.00008e-05
1.00008e-05
1.00009e-05
1.0001e-05
1.00008e-05
1.00005e-05
1.00003e-05
1.00001e-05
1.00002e-05
1.00005e-05
1.0001e-05
1.00014e-05
1.00015e-05
1.00011e-05
1.00003e-05
9.99909e-06
9.99762e-06
9.99627e-06
9.99533e-06
9.995e-06
9.99537e-06
9.9964e-06
9.99782e-06
9.99931e-06
1.00006e-05
1.00016e-05
1.0002e-05
1.0002e-05
1.00015e-05
1.00009e-05
1.00001e-05
9.99931e-06
9.99843e-06
9.99775e-06
9.9973e-06
9.99712e-06
9.99731e-06
9.99798e-06
9.99909e-06
1.00004e-05
1.00019e-05
1.00032e-05
1.00042e-05
1.00047e-05
1.00047e-05
1.00041e-05
1.0003e-05
1.00016e-05
1.00002e-05
9.99902e-06
9.99839e-06
9.99834e-06
9.99874e-06
9.99932e-06
9.99989e-06
1.00003e-05
1.00005e-05
1.00005e-05
1.00004e-05
1.00001e-05
9.99991e-06
9.99967e-06
9.99959e-06
9.99986e-06
1.00007e-05
1.00019e-05
1.00035e-05
1.0005e-05
1.00062e-05
1.00064e-05
1.00056e-05
1.00041e-05
1.0002e-05
9.99979e-06
9.99787e-06
9.99653e-06
9.99577e-06
9.99547e-06
9.99555e-06
9.996e-06
9.99686e-06
9.99806e-06
9.99958e-06
1.00012e-05
1.00026e-05
1.00034e-05
1.00034e-05
1.00027e-05
1.00015e-05
1.00003e-05
9.99933e-06
9.99891e-06
9.99902e-06
9.99945e-06
1e-05
1.00005e-05
1.00007e-05
1.00006e-05
1.00002e-05
9.99971e-06
9.9992e-06
9.9988e-06
9.99867e-06
9.99891e-06
9.99946e-06
1.00001e-05
1.00007e-05
1.00011e-05
1.00013e-05
1.00011e-05
1.00008e-05
1.00004e-05
1e-05
9.99974e-06
9.9995e-06
9.99934e-06
9.99924e-06
9.99916e-06
9.99915e-06
9.99928e-06
9.99955e-06
9.99988e-06
1.00003e-05
1.00007e-05
1.00012e-05
1.00017e-05
1.00021e-05
1.00026e-05
1.0003e-05
1.00033e-05
1.00033e-05
1.00031e-05
1.00025e-05
1.00016e-05
1.00003e-05
9.99905e-06
9.99782e-06
9.99683e-06
9.99627e-06
9.99625e-06
9.99675e-06
9.99761e-06
9.99871e-06
9.99983e-06
1.00008e-05
1.00014e-05
1.00016e-05
1.00012e-05
1.00003e-05
9.99906e-06
9.99769e-06
9.99655e-06
9.99589e-06
9.99582e-06
9.9965e-06
9.99779e-06
9.99936e-06
1.00008e-05
1.00018e-05
1.0002e-05
1.00016e-05
1.00005e-05
9.99931e-06
9.99839e-06
9.99812e-06
9.99841e-06
9.99916e-06
1.00001e-05
1.00009e-05
1.00012e-05
1.00011e-05
1.00006e-05
1.00001e-05
9.99931e-06
9.99864e-06
9.99805e-06
9.99759e-06
9.99715e-06
9.99696e-06
9.99709e-06
9.99765e-06
9.99862e-06
9.99995e-06
1.00016e-05
1.00032e-05
1.00047e-05
1.00057e-05
1.00062e-05
1.00062e-05
1.00057e-05
1.00048e-05
1.00036e-05
1.00025e-05
1.00015e-05
1.00009e-05
1.00006e-05
1.00005e-05
1.00003e-05
9.99994e-06
9.99923e-06
9.99834e-06
9.99742e-06
9.99685e-06
9.99674e-06
9.99708e-06
9.99781e-06
9.99872e-06
9.99964e-06
1.00003e-05
1.00007e-05
1.00009e-05
1.00009e-05
1.00008e-05
1.00006e-05
1.00003e-05
9.99997e-06
9.99974e-06
9.99965e-06
9.99979e-06
1.00002e-05
1.00008e-05
1.00013e-05
1.00015e-05
1.00014e-05
1.0001e-05
1.00004e-05
9.99976e-06
9.99929e-06
9.99917e-06
9.99935e-06
9.99977e-06
1.00003e-05
1.00008e-05
1.00011e-05
1.00014e-05
1.00016e-05
1.00017e-05
1.00017e-05
1.00016e-05
1.00013e-05
1.00006e-05
9.9998e-06
9.99904e-06
9.99845e-06
9.99832e-06
9.9986e-06
9.99925e-06
1.00001e-05
1.00009e-05
1.00013e-05
1.00013e-05
1.00008e-05
1e-05
9.9992e-06
9.99855e-06
9.99824e-06
9.99835e-06
9.99885e-06
9.99955e-06
1.00004e-05
1.00012e-05
1.00019e-05
1.00023e-05
1.00025e-05
1.00025e-05
1.00022e-05
1.00016e-05
1.00008e-05
9.99982e-06
9.99878e-06
9.99781e-06
9.99706e-06
9.99667e-06
9.99667e-06
9.99695e-06
9.99747e-06
9.99811e-06
9.99882e-06
9.99947e-06
1.00001e-05
1.00008e-05
1.00014e-05
1.0002e-05
1.00023e-05
1.00024e-05
1.00021e-05
1.00014e-05
1.00003e-05
9.99906e-06
9.9978e-06
9.9967e-06
9.99599e-06
9.9959e-06
9.99645e-06
9.9975e-06
9.9989e-06
1.00003e-05
1.00016e-05
1.00023e-05
1.00024e-05
1.00021e-05
1.00013e-05
1.00004e-05
9.99947e-06
9.99877e-06
9.99833e-06
9.99808e-06
9.99802e-06
9.99813e-06
9.99844e-06
9.99893e-06
9.99969e-06
1.00007e-05
1.00018e-05
1.00026e-05
1.00031e-05
1.0003e-05
1.00024e-05
1.00013e-05
1.00002e-05
9.99919e-06
9.99861e-06
9.99842e-06
9.99863e-06
9.99913e-06
9.99978e-06
1.00004e-05
1.00009e-05
1.00012e-05
1.00012e-05
1.0001e-05
1.00006e-05
1.00002e-05
9.99994e-06
9.99995e-06
1.00003e-05
1.00008e-05
1.00015e-05
1.0002e-05
1.00022e-05
1.00022e-05
1.00017e-05
1.0001e-05
1.00004e-05
9.99994e-06
9.99973e-06
9.9997e-06
9.99983e-06
9.99992e-06
9.99986e-06
9.99951e-06
9.99897e-06
9.99826e-06
9.99765e-06
9.99715e-06
9.99699e-06
9.99723e-06
9.9978e-06
9.99859e-06
9.99955e-06
1.00006e-05
1.00015e-05
1.00021e-05
1.00024e-05
1.00023e-05
1.00018e-05
1.00009e-05
1e-05
9.99925e-06
9.99875e-06
9.99848e-06
9.99856e-06
9.99893e-06
9.99948e-06
1e-05
1.00005e-05
1.00009e-05
1.00011e-05
1.0001e-05
1.00007e-05
1.00005e-05
1.00002e-05
9.99999e-06
9.99991e-06
9.99995e-06
1.00002e-05
1.00006e-05
1.0001e-05
1.00014e-05
1.00015e-05
1.00013e-05
1.00009e-05
1.00002e-05
9.99936e-06
9.99854e-06
9.99789e-06
9.99755e-06
9.99753e-06
9.99781e-06
9.99838e-06
9.99916e-06
1e-05
1.00008e-05
1.00014e-05
1.00018e-05
1.0002e-05
1.00019e-05
1.00017e-05
1.00014e-05
1.00011e-05
1.00006e-05
1.00002e-05
9.99978e-06
9.99945e-06
9.9992e-06
9.99909e-06
9.9991e-06
9.99919e-06
9.99926e-06
9.99927e-06
9.99916e-06
9.99888e-06
9.99854e-06
9.99823e-06
9.99808e-06
9.99814e-06
9.99838e-06
9.9988e-06
9.99932e-06
9.99975e-06
9.99994e-06
9.99989e-06
9.99962e-06
9.99927e-06
9.99896e-06
9.99885e-06
9.999e-06
9.99941e-06
9.99996e-06
1.00005e-05
1.0001e-05
1.00012e-05
1.00012e-05
1.0001e-05
1.00007e-05
1.00004e-05
1.00003e-05
1.00003e-05
1.00005e-05
1.00007e-05
1.00009e-05
1.00011e-05
1.00011e-05
1.00011e-05
1.0001e-05
1.00008e-05
1.00004e-05
1e-05
9.99969e-06
9.99936e-06
9.99907e-06
9.99889e-06
9.99881e-06
9.9988e-06
9.99893e-06
9.99922e-06
9.99965e-06
1.00001e-05
1.00004e-05
1.00006e-05
1.00007e-05
1.00006e-05
1.00004e-05
1.00004e-05
1.00005e-05
1.00008e-05
1.00013e-05
1.00018e-05
1.00023e-05
1.00025e-05
1.00024e-05
1.00021e-05
1.00016e-05
1.0001e-05
1.00003e-05
9.99972e-06
9.99928e-06
9.99896e-06
9.99876e-06
9.99868e-06
9.99867e-06
9.99861e-06
9.99849e-06
9.99836e-06
9.99826e-06
9.99822e-06
9.9983e-06
9.99856e-06
9.99895e-06
9.99931e-06
9.99956e-06
9.99968e-06
9.99969e-06
9.99961e-06
9.99961e-06
9.99981e-06
1.00003e-05
1.00009e-05
1.00015e-05
1.00019e-05
1.0002e-05
1.00017e-05
1.00009e-05
9.9999e-06
9.99881e-06
9.99788e-06
9.99728e-06
9.99715e-06
9.99744e-06
9.99797e-06
9.99862e-06
9.99925e-06
9.99976e-06
1e-05
1.00001e-05
9.99997e-06
9.99979e-06
9.99957e-06
9.99941e-06
9.99942e-06
9.9996e-06
9.99987e-06
1.00002e-05
1.00005e-05
1.00006e-05
1.00006e-05
1.00003e-05
9.99998e-06
9.99961e-06
9.99928e-06
9.99924e-06
9.9995e-06
1e-05
1.00006e-05
1.00012e-05
1.00016e-05
1.00017e-05
1.00014e-05
1.00008e-05
1.00001e-05
9.99945e-06
9.99894e-06
9.99881e-06
9.99902e-06
9.99946e-06
9.99992e-06
1.00003e-05
1.00004e-05
1.00003e-05
9.99992e-06
9.99959e-06
9.99931e-06
9.99922e-06
9.99932e-06
9.99964e-06
1.00001e-05
1.00007e-05
1.00012e-05
1.00016e-05
1.00019e-05
1.0002e-05
1.00019e-05
1.00016e-05
1.00012e-05
1.00008e-05
1.00003e-05
9.99989e-06
9.99962e-06
9.9995e-06
9.99949e-06
9.99961e-06
9.9998e-06
9.99997e-06
1e-05
9.99999e-06
9.99983e-06
9.99965e-06
9.99944e-06
9.99935e-06
9.99933e-06
9.99947e-06
9.99965e-06
9.99984e-06
9.99992e-06
9.99992e-06
9.99981e-06
9.99974e-06
9.99968e-06
9.99974e-06
9.99984e-06
1e-05
1.00002e-05
1.00003e-05
1.00003e-05
1.00002e-05
1e-05
9.9998e-06
9.99958e-06
9.99943e-06
9.9993e-06
9.99922e-06
9.99916e-06
9.99919e-06
9.99932e-06
9.99959e-06
9.99999e-06
1.00005e-05
1.00011e-05
1.00017e-05
1.00021e-05
1.00022e-05
1.0002e-05
1.00015e-05
1.00008e-05
1e-05
9.9993e-06
9.99874e-06
9.99835e-06
9.99824e-06
9.99833e-06
9.9986e-06
9.99898e-06
9.99944e-06
9.99987e-06
1.00002e-05
1.00005e-05
1.00007e-05
1.00008e-05
1.00009e-05
1.0001e-05
1.0001e-05
1.00009e-05
1.00009e-05
1.00008e-05
1.00006e-05
1.00003e-05
9.99991e-06
9.99954e-06
9.99914e-06
9.99878e-06
9.99851e-06
9.99836e-06
9.99828e-06
9.99834e-06
9.99856e-06
9.99896e-06
9.99942e-06
9.99992e-06
1.00004e-05
1.00008e-05
1.00011e-05
1.00011e-05
1.0001e-05
1.00008e-05
1.00004e-05
9.9999e-06
9.99942e-06
9.99903e-06
9.99873e-06
9.99859e-06
9.99867e-06
9.99896e-06
9.99936e-06
9.99983e-06
1.00003e-05
1.00008e-05
1.0001e-05
1.00012e-05
1.00012e-05
1.00012e-05
1.0001e-05
1.00008e-05
1.00006e-05
1.00004e-05
1.00001e-05
9.99978e-06
9.99956e-06
9.99946e-06
9.99946e-06
9.99958e-06
9.99983e-06
1.00001e-05
1.00004e-05
1.00006e-05
1.00007e-05
1.00007e-05
1.00006e-05
1.00005e-05
1.00003e-05
1.00002e-05
1.00001e-05
9.99994e-06
9.99984e-06
9.99973e-06
9.99956e-06
9.99941e-06
9.99933e-06
9.99934e-06
9.99938e-06
9.9995e-06
9.99978e-06
1.00001e-05
1.00004e-05
1.00006e-05
1.00006e-05
1.00005e-05
1.00002e-05
9.99988e-06
9.99968e-06
9.99966e-06
9.99977e-06
9.99998e-06
1.00002e-05
1.00004e-05
1.00004e-05
1.00002e-05
1e-05
9.99985e-06
9.99964e-06
9.99945e-06
9.99935e-06
9.99934e-06
9.99939e-06
9.99947e-06
9.9996e-06
9.99981e-06
9.99999e-06
1.00002e-05
1.00003e-05
1.00004e-05
1.00005e-05
1.00005e-05
1.00004e-05
1.00004e-05
1.00002e-05
1.00001e-05
1.00001e-05
1.00001e-05
1.00002e-05
1.00002e-05
1.00002e-05
1.00002e-05
1.00002e-05
1.00001e-05
9.99999e-06
9.99999e-06
1e-05
1.00001e-05
1.00002e-05
1.00004e-05
1.00005e-05
1.00005e-05
1.00005e-05
1.00004e-05
1.00002e-05
1.00001e-05
9.99993e-06
9.99985e-06
9.99973e-06
9.99965e-06
9.99965e-06
9.99973e-06
9.99982e-06
9.99994e-06
1e-05
1.00002e-05
1.00003e-05
1.00003e-05
1.00003e-05
1.00003e-05
1.00003e-05
1.00003e-05
1.00003e-05
1.00003e-05
1.00002e-05
1.00002e-05
1.00001e-05
1.00001e-05
1e-05
1.00001e-05
1.00001e-05
1.00002e-05
1.00003e-05
1.00004e-05
1.00004e-05
1.00004e-05
1.00003e-05
1.00002e-05
9.99994e-06
9.99977e-06
9.99958e-06
9.99949e-06
9.99948e-06
9.99958e-06
9.99968e-06
9.99981e-06
9.99991e-06
1e-05
1.00001e-05
1.00001e-05
1.00002e-05
1.00002e-05
1.00001e-05
1.00001e-05
1.00001e-05
1.00001e-05
9.99999e-06
9.99992e-06
9.9999e-06
9.99991e-06
9.99992e-06
9.99996e-06
1e-05
1.00001e-05
1.00001e-05
1.00001e-05
1.00002e-05
1.00002e-05
1.00002e-05
1.00002e-05
1.00003e-05
1.00002e-05
1.00001e-05
9.99991e-06
9.99964e-06
9.99938e-06
9.99917e-06
9.99902e-06
9.999e-06
9.99915e-06
9.99945e-06
9.99976e-06
1.00001e-05
1.00003e-05
1.00005e-05
1.00005e-05
1.00005e-05
1.00005e-05
1.00005e-05
1.00004e-05
1.00002e-05
1.00001e-05
9.99998e-06
9.99982e-06
9.99965e-06
9.99954e-06
9.99949e-06
9.99946e-06
9.99945e-06
9.99949e-06
9.99958e-06
9.99966e-06
9.99974e-06
9.99985e-06
1e-05
1.00001e-05
1.00002e-05
1.00002e-05
1.00002e-05
1.00001e-05
9.99994e-06
9.99983e-06
9.99978e-06
9.99974e-06
9.99974e-06
9.99982e-06
9.99995e-06
1.00001e-05
1.00002e-05
1.00003e-05
1.00003e-05
1.00003e-05
1.00002e-05
1.00001e-05
1e-05
9.99992e-06
9.99982e-06
9.99976e-06
9.99974e-06
9.99969e-06
9.99966e-06
9.9997e-06
9.9998e-06
9.99985e-06
9.99988e-06
9.99991e-06
9.99996e-06
9.99997e-06
9.99996e-06
9.99996e-06
9.99995e-06
9.99988e-06
9.99978e-06
9.99972e-06
9.99973e-06
9.99975e-06
9.9998e-06
9.99992e-06
1.00001e-05
1.00002e-05
1.00002e-05
1.00002e-05
1.00002e-05
1.00001e-05
9.99993e-06
9.99983e-06
9.99978e-06
9.99974e-06
9.99974e-06
9.99981e-06
9.99992e-06
1e-05
1.00001e-05
1.00001e-05
1.00002e-05
1.00002e-05
1.00002e-05
1.00002e-05
1.00002e-05
1.00002e-05
1.00002e-05
1.00001e-05
1.00001e-05
1e-05
9.99994e-06
9.99982e-06
9.9998e-06
9.99983e-06
9.99992e-06
1e-05
1.00001e-05
1.00002e-05
1.00001e-05
1.00001e-05
1e-05
9.99994e-06
9.99986e-06
9.99979e-06
9.99983e-06
9.99988e-06
9.99997e-06
1.00001e-05
1.00002e-05
1.00002e-05
1.00002e-05
1.00001e-05
1.00001e-05
1e-05
1e-05
9.99995e-06
9.99995e-06
9.99994e-06
9.99995e-06
9.99994e-06
9.99998e-06
9.99996e-06
9.99994e-06
9.99991e-06
9.99994e-06
9.99996e-06
1e-05
1e-05
1.00001e-05
1.00001e-05
1.00001e-05
1e-05
9.99999e-06
9.99995e-06
9.99997e-06
9.99997e-06
9.99998e-06
9.99995e-06
9.99997e-06
9.99999e-06
1.00001e-05
1.00001e-05
1e-05
9.99998e-06
9.99996e-06
9.99994e-06
9.99997e-06
1e-05
1.00001e-05
1.00002e-05
1.00002e-05
1.00001e-05
1e-05
9.99992e-06
9.99987e-06
9.99985e-06
9.99988e-06
9.9999e-06
9.99993e-06
9.99994e-06
9.99995e-06
9.99994e-06
9.99995e-06
9.99997e-06
9.99998e-06
9.99996e-06
9.99989e-06
9.99981e-06
9.99976e-06
9.99968e-06
9.99969e-06
9.99979e-06
9.9999e-06
1e-05
1.00001e-05
1.00001e-05
1.00001e-05
1.00001e-05
9.99992e-06
9.99981e-06
9.99976e-06
9.99981e-06
9.99989e-06
9.99993e-06
9.99999e-06
1.00001e-05
1.00001e-05
1e-05
1e-05
1e-05
9.99996e-06
9.99991e-06
9.99992e-06
9.99998e-06
1e-05
1e-05
1e-05
1.00001e-05
1e-05
9.99997e-06
9.9999e-06
9.99983e-06
9.99972e-06
9.99964e-06
9.99965e-06
9.99982e-06
1.00001e-05
1.00005e-05
1.00009e-05
1.00014e-05
1.00016e-05
1.00017e-05
1.00015e-05
1.00011e-05
1.00005e-05
9.99956e-06
9.99828e-06
9.99621e-06
9.9933e-06
9.98954e-06
9.98516e-06
9.9804e-06
9.97647e-06
9.97433e-06
9.9747e-06
9.97857e-06
9.98586e-06
9.99635e-06
1.00095e-05
1.00262e-05
1.00439e-05
1.00615e-05
1.0079e-05
1.00983e-05
1.01175e-05
1.0138e-05
1.01618e-05
1.01907e-05
1.02199e-05
1.02437e-05
1.0251e-05
1.02235e-05
1.01484e-05
1.00148e-05
9.823e-06
9.56895e-06
9.2995e-06
9.05753e-06
8.88879e-06
8.83474e-06
8.91993e-06
9.1307e-06
9.43149e-06
9.83785e-06
1.0266e-05
1.06986e-05
1.11674e-05
1.17872e-05
1.25068e-05
1.33527e-05
1.43792e-05
1.5699e-05
1.71728e-05
1.87652e-05
2.04544e-05
2.23523e-05
2.42514e-05
2.61145e-05
2.79235e-05
2.9801e-05
3.15626e-05
3.31834e-05
3.46675e-05
3.61456e-05
3.74767e-05
3.8645e-05
3.96793e-05
4.0679e-05
4.15479e-05
4.22452e-05
4.30159e-05
4.36353e-05
4.4206e-05
4.46406e-05
4.50128e-05
4.51709e-05
4.53074e-05
4.53397e-05
4.53047e-05
4.51695e-05
4.49999e-05
4.4765e-05
4.44619e-05
4.40858e-05
4.36013e-05
4.30751e-05
4.24197e-05
4.1735e-05
4.0991e-05
4.02718e-05
3.94677e-05
3.86239e-05
3.76121e-05
3.65167e-05
3.52364e-05
3.39623e-05
3.26324e-05
3.1396e-05
3.00895e-05
2.8822e-05
2.74038e-05
2.58862e-05
2.40389e-05
2.20389e-05
1.97258e-05
1.74003e-05
1.50831e-05
1.32931e-05
1.25688e-05
1.41213e-05
1.85059e-05
2.42826e-05
3.0494e-05
3.48633e-05
3.60932e-05
3.26834e-05
2.57119e-05
2.20965e-05
3.17645e-05
4.74113e-05
5.97476e-05
6.66459e-05
7.05434e-05
7.2798e-05
7.42565e-05
7.46637e-05
7.41816e-05
7.31614e-05
7.20858e-05
7.10671e-05
6.99546e-05
6.88542e-05
6.79143e-05
6.71559e-05
6.67065e-05
6.64224e-05
6.63519e-05
6.6492e-05
6.68414e-05
6.72599e-05
6.76948e-05
6.8097e-05
6.85334e-05
6.88357e-05
6.90515e-05
6.9239e-05
6.93046e-05
6.93503e-05
6.93482e-05
6.92473e-05
6.92043e-05
6.90684e-05
6.89911e-05
6.88693e-05
6.87811e-05
6.86802e-05
6.85026e-05
6.84345e-05
6.83252e-05
6.82929e-05
6.82885e-05
6.83419e-05
6.8368e-05
6.84008e-05
6.8437e-05
6.84916e-05
6.85498e-05
6.86567e-05
6.87337e-05
6.87795e-05
6.88285e-05
6.8862e-05
6.88461e-05
6.88228e-05
6.88115e-05
6.87901e-05
6.87458e-05
6.87163e-05
6.87197e-05
6.87293e-05
6.87179e-05
6.87197e-05
6.87504e-05
6.87807e-05
6.87776e-05
6.87802e-05
6.88039e-05
6.882e-05
6.87968e-05
6.87782e-05
6.87825e-05
6.87825e-05
6.87481e-05
6.87249e-05
6.8731e-05
6.87376e-05
6.8714e-05
6.87023e-05
6.87168e-05
6.87264e-05
6.87004e-05
6.86792e-05
6.86802e-05
6.86789e-05
6.86476e-05
6.8631e-05
6.86477e-05
6.86719e-05
6.86699e-05
6.86828e-05
6.87244e-05
6.87565e-05
6.87323e-05
6.87038e-05
6.86897e-05
6.86558e-05
6.85588e-05
6.84737e-05
6.84351e-05
6.84359e-05
6.84587e-05
6.85443e-05
6.86977e-05
6.88606e-05
6.89743e-05
6.90527e-05
6.90863e-05
6.90271e-05
6.8855e-05
6.8635e-05
6.84135e-05
6.82323e-05
6.81288e-05
6.81901e-05
6.84421e-05
6.88156e-05
6.92081e-05
6.95798e-05
6.98303e-05
6.979e-05
6.94028e-05
6.87604e-05
6.7936e-05
6.70966e-05
6.65492e-05
6.6679e-05
6.76114e-05
6.91416e-05
7.1097e-05
7.32965e-05
7.49311e-05
7.46404e-05
7.13994e-05
6.44648e-05
5.25593e-05
3.63656e-05
2.51185e-05
2.41255e-05
2.57644e-05
2.80639e-05
3.00121e-05
2.99466e-05
2.78269e-05
2.58699e-05
2.45575e-05
2.32829e-05
2.2157e-05
2.17019e-05
2.18974e-05
2.23182e-05
2.28552e-05
2.38616e-05
2.51563e-05
2.65815e-05
2.78081e-05
2.90407e-05
3.03049e-05
3.16815e-05
3.29217e-05
3.40383e-05
3.48923e-05
3.55828e-05
3.60765e-05
3.63964e-05
3.65752e-05
3.66341e-05
3.6601e-05
3.64483e-05
3.6192e-05
3.57692e-05
3.52163e-05
3.44507e-05
3.35964e-05
3.26681e-05
3.18326e-05
3.1003e-05
3.03229e-05
2.97526e-05
2.93668e-05
2.90508e-05
2.88509e-05
2.87682e-05
2.88185e-05
2.89193e-05
2.90578e-05
2.9236e-05
2.9447e-05
2.95781e-05
2.96243e-05
2.95979e-05
2.95607e-05
2.94275e-05
2.92044e-05
2.91483e-05
2.88333e-05
2.85832e-05
2.82059e-05
2.79431e-05
2.74311e-05
2.70024e-05
2.64706e-05
2.5897e-05
2.52547e-05
2.45663e-05
2.38298e-05
2.29428e-05
2.2214e-05
2.14031e-05
2.05476e-05
1.97096e-05
1.87927e-05
1.78339e-05
1.68621e-05
1.57789e-05
1.47167e-05
1.36888e-05
1.2712e-05
1.18259e-05
1.10361e-05
1.03503e-05
9.80296e-06
9.33882e-06
8.98311e-06
8.77735e-06
8.67215e-06
8.6617e-06
8.74066e-06
8.88246e-06
9.05554e-06
9.24826e-06
9.44605e-06
9.6206e-06
9.78485e-06
9.92767e-06
1.00392e-05
1.01255e-05
1.01782e-05
1.02091e-05
1.02173e-05
1.02067e-05
1.01828e-05
1.01507e-05
1.01163e-05
1.00784e-05
1.00463e-05
1.00183e-05
9.9969e-06
9.98187e-06
9.97388e-06
9.9716e-06
9.97349e-06
9.97828e-06
9.98433e-06
9.99042e-06
9.99568e-06
9.99976e-06
1.00022e-05
1.00032e-05
1.00032e-05
1.00023e-05
1.00013e-05
1.00005e-05
9.99989e-06
9.99968e-06
9.99981e-06
1.00001e-05
1.00005e-05
1.00006e-05
1.00005e-05
1.00002e-05
9.99983e-06
9.99947e-06
9.99931e-06
9.99939e-06
9.99957e-06
9.99976e-06
9.99994e-06
1.00001e-05
1.00002e-05
1.00002e-05
1.00004e-05
1.00007e-05
1.0001e-05
1.00012e-05
1.00014e-05
1.00014e-05
1.00012e-05
1.00008e-05
1.00004e-05
9.99994e-06
9.99951e-06
9.99919e-06
9.99908e-06
9.99921e-06
9.99952e-06
9.99993e-06
1.00003e-05
1.00006e-05
1.00007e-05
1.00004e-05
9.99999e-06
9.99947e-06
9.99898e-06
9.99867e-06
9.99869e-06
9.99903e-06
9.99952e-06
1e-05
1.00005e-05
1.00008e-05
1.00008e-05
1.00006e-05
1.00003e-05
1e-05
9.99974e-06
9.99951e-06
9.9994e-06
9.99942e-06
9.99946e-06
9.99953e-06
9.99965e-06
9.99979e-06
9.99985e-06
9.99985e-06
9.99983e-06
9.99985e-06
9.99985e-06
9.99985e-06
9.99989e-06
9.99998e-06
1.00001e-05
1.00001e-05
1.00001e-05
1.00001e-05
1e-05
9.99992e-06
9.9998e-06
9.99975e-06
9.99977e-06
9.99993e-06
1.00003e-05
1.00008e-05
1.00015e-05
1.00021e-05
1.00025e-05
1.00024e-05
1.00019e-05
1.0001e-05
1e-05
9.99917e-06
9.9985e-06
9.99813e-06
9.99808e-06
9.99837e-06
9.99892e-06
9.99961e-06
1.00003e-05
1.00009e-05
1.00013e-05
1.00014e-05
1.00012e-05
1.00008e-05
1.00002e-05
9.99984e-06
9.99973e-06
9.99994e-06
1.00004e-05
1.00009e-05
1.00013e-05
1.00015e-05
1.00014e-05
1.00009e-05
1.00001e-05
9.99923e-06
9.99839e-06
9.99788e-06
9.99775e-06
9.9981e-06
9.99881e-06
9.99967e-06
1.00005e-05
1.00012e-05
1.00017e-05
1.0002e-05
1.0002e-05
1.00018e-05
1.00013e-05
1.00008e-05
1.00002e-05
9.99959e-06
9.99899e-06
9.99854e-06
9.99824e-06
9.99813e-06
9.99832e-06
9.99877e-06
9.99937e-06
9.99995e-06
1.00004e-05
1.00007e-05
1.00007e-05
1.00006e-05
1.00004e-05
1.00004e-05
1.00003e-05
1.00003e-05
1.00002e-05
9.99989e-06
9.99939e-06
9.99914e-06
9.99955e-06
9.99981e-06
1e-05
1.00001e-05
1.00002e-05
1.00002e-05
1.00001e-05
1e-05
9.99992e-06
9.99995e-06
9.99998e-06
9.99999e-06
9.99994e-06
9.99985e-06
9.9998e-06
9.99973e-06
9.99971e-06
9.99974e-06
9.99986e-06
9.99999e-06
1.00001e-05
1.00002e-05
1.00003e-05
1.00003e-05
1.00002e-05
1.00001e-05
9.99994e-06
9.99986e-06
9.99985e-06
9.99991e-06
1e-05
1e-05
1e-05
9.99996e-06
9.99989e-06
9.99985e-06
9.9999e-06
1e-05
1.00001e-05
1.00001e-05
1e-05
9.99987e-06
9.99978e-06
9.99973e-06
9.99974e-06
9.99977e-06
9.99984e-06
9.99987e-06
9.99988e-06
9.99985e-06
9.99984e-06
9.99982e-06
9.99982e-06
9.99983e-06
9.99988e-06
9.99989e-06
9.99987e-06
9.99983e-06
9.99985e-06
9.99988e-06
9.99993e-06
9.99995e-06
9.99993e-06
9.99982e-06
9.99971e-06
9.99964e-06
9.99967e-06
9.99972e-06
9.9998e-06
9.99988e-06
9.99998e-06
1e-05
1e-05
9.99991e-06
9.99983e-06
9.99981e-06
9.9999e-06
1e-05
1e-05
9.99997e-06
9.9998e-06
9.99971e-06
9.9997e-06
9.99977e-06
9.99984e-06
9.99995e-06
1.00001e-05
1.00001e-05
1.00001e-05
1.00001e-05
1.00001e-05
1.00001e-05
9.99997e-06
9.9999e-06
9.99986e-06
9.99982e-06
9.99978e-06
9.99979e-06
9.99981e-06
9.99986e-06
9.99992e-06
1e-05
1.00001e-05
1.00002e-05
1.00002e-05
1.00002e-05
1.00001e-05
1.00001e-05
1e-05
9.99996e-06
9.99997e-06
9.99998e-06
9.99994e-06
9.99993e-06
9.99999e-06
1.00001e-05
1.00001e-05
1e-05
9.99992e-06
9.99982e-06
9.99975e-06
9.99982e-06
9.99994e-06
1.00001e-05
1.00002e-05
1.00002e-05
1.00002e-05
1.00001e-05
9.99995e-06
9.99986e-06
9.99986e-06
9.99995e-06
1e-05
1e-05
1e-05
9.99996e-06
9.9999e-06
9.99991e-06
9.99989e-06
9.99987e-06
9.99985e-06
9.99989e-06
9.99999e-06
1.00002e-05
1.00004e-05
1.00007e-05
1.00007e-05
9.99959e-06
9.9969e-06
9.99174e-06
9.98564e-06
9.98145e-06
9.9846e-06
1.00036e-05
1.00411e-05
1.0102e-05
1.01668e-05
1.02244e-05
1.0233e-05
1.01475e-05
9.97171e-06
9.65783e-06
9.30513e-06
8.90136e-06
8.62146e-06
8.46264e-06
8.58159e-06
9.11459e-06
9.90419e-06
1.12159e-05
1.26584e-05
1.46684e-05
1.66358e-05
1.92229e-05
2.14827e-05
2.38308e-05
2.63611e-05
2.90553e-05
3.16714e-05
3.42832e-05
3.68662e-05
3.94464e-05
4.19779e-05
4.42583e-05
4.65868e-05
4.893e-05
5.12009e-05
5.32717e-05
5.54049e-05
5.79359e-05
5.9941e-05
6.17261e-05
6.3177e-05
6.47738e-05
6.61842e-05
6.73507e-05
6.85325e-05
6.97034e-05
7.08607e-05
7.18968e-05
7.30184e-05
7.42265e-05
7.52965e-05
7.64597e-05
7.73464e-05
7.82995e-05
7.91e-05
7.96739e-05
8.0174e-05
8.06667e-05
8.10069e-05
8.14264e-05
8.16468e-05
8.19484e-05
8.21409e-05
8.21839e-05
8.21355e-05
8.20031e-05
8.16262e-05
8.11381e-05
8.03426e-05
7.94544e-05
7.84354e-05
7.74245e-05
7.64311e-05
7.55163e-05
7.45963e-05
7.36805e-05
7.26729e-05
7.16873e-05
7.07525e-05
6.9934e-05
6.90607e-05
6.81101e-05
6.70336e-05
6.58895e-05
6.46581e-05
6.35113e-05
6.24614e-05
6.15429e-05
6.0834e-05
6.04119e-05
5.99931e-05
5.94517e-05
5.90486e-05
5.85831e-05
5.79038e-05
5.71984e-05
5.68486e-05
5.66507e-05
5.6779e-05
5.73461e-05
5.84841e-05
5.97394e-05
6.13709e-05
6.30836e-05
6.50507e-05
6.68189e-05
6.89487e-05
7.10426e-05
7.3406e-05
7.55158e-05
7.79421e-05
7.97484e-05
8.2108e-05
8.42324e-05
8.67276e-05
8.88909e-05
9.17052e-05
9.58594e-05
0.000100394
0.000104717
0.000108992
0.000111892
0.000113628
0.000113824
0.000110176
0.000102919
9.4016e-05
8.44868e-05
7.93166e-05
8.38601e-05
0.000115423
0.000205596
0.000262408
0.00029313
0.000315801
0.000324588
0.000335448
0.000349288
0.000345812
0.000342762
0.00035286
0.000371014
0.000344318
0.000339666
0.00035634
0.000346917
0.000347293
0.000338633
0.000328121
0.000337815
0.000368384
0.000371647
0.00034478
0.000348984
0.000343506
0.00034516
0.000345995
0.000337164
0.000334828
0.000325384
0.000342349
0.000326208
0.000338093
0.000345355
0.000357921
0.000341385
0.000335852
0.000357725
0.000337157
0.000344125
0.0003392
0.000320522
0.000359392
0.000374065
0.000357462
0.000325538
0.000342815
0.000338187
0.000356589
0.000364389
0.000345236
0.000331202
0.000333007
0.000325787
0.000330039
0.000354367
0.000340114
0.000345081
0.000361632
0.000340727
0.000348822
0.000347983
0.000344863
0.000343871
0.000341434
0.000353055
0.000351954
0.000347413
0.000343366
0.00035027
0.000341086
0.000351242
0.000359932
0.000387824
0.000336015
0.000327056
0.000341353
0.000338327
0.000334456
0.00032425
0.000353769
0.000345679
0.000346592
0.000337412
0.00034276
0.000332336
0.000340681
0.000327209
0.000340793
0.000346958
0.000386209
0.000344448
0.000340715
0.000368999
0.000355562
0.000342784
0.00034617
0.000348604
0.000344503
0.000342495
0.000337752
0.000355803
0.000363275
0.000362108
0.000363493
0.000346745
0.00034826
0.000379362
0.000329331
0.000332096
0.000315718
0.000320964
0.000324963
0.000344865
0.000363223
0.000324826
0.000327729
0.000324642
0.000339837
0.000376662
0.000346061
0.000338816
0.000348344
0.000335449
0.000325883
0.000347349
0.000337165
0.000342777
0.000325505
0.000338176