/*--------------------------------*- C++ -*----------------------------------*\
| =========                 |                                                 |
| \\      /  F ield         | foam-extend: Open Source CFD                    |
|  \\    /   O peration     | Version:     4.0                                |
|   \\  /    A nd           | Web:         http://www.foam-extend.org         |
|    \\/     M anipulation  |                                                 |
\*---------------------------------------------------------------------------*/
FoamFile
{
    version     2.0;
    format      ascii;
    class       volScalarField;
    location    "0.019";
    object      h;
}
// * * * * * * * * * * * * * * * * * * * * * * * * * * * * * * * * * * * * * //

dimensions      [0 1 0 0 0 0 0];

internalField   nonuniform List<scalar> 
176451
(
1.00039e-05
9.99605e-06
9.99276e-06
9.99689e-06
1.00012e-05
1.00029e-05
9.99731e-06
9.99973e-06
9.99971e-06
1.0001e-05
1.00041e-05
1.00066e-05
1.00012e-05
9.99709e-06
9.9981e-06
9.99624e-06
1.00001e-05
1.0002e-05
1.00048e-05
9.99771e-06
1.00008e-05
1.00007e-05
1.00002e-05
1.00025e-05
1.0004e-05
1.00027e-05
1.00009e-05
9.99883e-06
9.99734e-06
1.0001e-05
9.99683e-06
1.00012e-05
9.99978e-06
9.99468e-06
9.99945e-06
1.00067e-05
1.00027e-05
1.00012e-05
9.99786e-06
9.99574e-06
1.00007e-05
1.00031e-05
9.99717e-06
9.9993e-06
1.00005e-05
1.00007e-05
9.9993e-06
1.00002e-05
1.00039e-05
1.00029e-05
1.00024e-05
9.99919e-06
9.99817e-06
9.99768e-06
1.00032e-05
1.00027e-05
1.00014e-05
9.9995e-06
9.99712e-06
1.00022e-05
1.00029e-05
9.99676e-06
9.99542e-06
1.00009e-05
1.00002e-05
1.00031e-05
1.00029e-05
1.00009e-05
1.00012e-05
9.99753e-06
1.00004e-05
1.00014e-05
9.99909e-06
1.00037e-05
1.00017e-05
1.00015e-05
9.99893e-06
1.00008e-05
9.99826e-06
9.99259e-06
9.99886e-06
1.00074e-05
9.99628e-06
9.99913e-06
9.9995e-06
9.99849e-06
1.00023e-05
1.00025e-05
1.00003e-05
1.00019e-05
1.00024e-05
1.00011e-05
1.00021e-05
9.99958e-06
9.99783e-06
9.99646e-06
9.99773e-06
1.00017e-05
1.00023e-05
9.99865e-06
1.00005e-05
1e-05
1.00012e-05
9.99926e-06
1.0001e-05
9.99893e-06
1.00014e-05
1.00045e-05
1.0004e-05
1.00025e-05
1.00039e-05
1.00015e-05
1.00009e-05
1.00011e-05
1.00013e-05
1.00048e-05
1.00028e-05
9.99999e-06
1.00035e-05
1.00014e-05
9.99903e-06
9.99556e-06
9.99631e-06
9.99728e-06
1.00026e-05
1.00015e-05
9.99949e-06
1.00006e-05
9.99964e-06
1.00027e-05
1.0001e-05
1.00018e-05
1.00006e-05
1.00033e-05
9.99915e-06
9.99956e-06
1.0006e-05
9.99602e-06
1.00002e-05
1.00002e-05
9.99868e-06
9.99825e-06
1.00036e-05
1.00023e-05
9.99557e-06
9.99701e-06
1.00017e-05
1.00027e-05
9.99896e-06
1.00001e-05
1.00042e-05
9.99953e-06
9.99806e-06
9.99934e-06
9.99732e-06
1.00011e-05
1.00007e-05
9.99756e-06
1.00024e-05
1.00014e-05
9.99954e-06
9.99974e-06
9.99671e-06
9.9993e-06
1.00003e-05
1.00033e-05
1.00004e-05
1.00001e-05
9.99867e-06
1.00013e-05
9.99543e-06
9.99896e-06
1.00049e-05
1.00009e-05
9.9974e-06
9.99921e-06
1.00044e-05
9.99443e-06
1.00031e-05
1.00023e-05
1.00014e-05
1.0001e-05
9.99616e-06
1.00012e-05
9.99671e-06
9.99897e-06
1.00012e-05
1.00066e-05
1.00067e-05
1.0002e-05
1.00062e-05
1.00007e-05
9.99496e-06
9.99004e-06
9.98664e-06
9.98547e-06
9.9863e-06
9.98847e-06
9.99123e-06
9.99382e-06
9.99585e-06
9.99716e-06
9.99794e-06
9.99842e-06
9.99878e-06
9.99906e-06
9.9993e-06
9.99943e-06
9.99937e-06
9.99902e-06
9.99847e-06
9.99791e-06
9.9975e-06
9.99744e-06
9.99795e-06
9.99913e-06
1.0001e-05
1.00034e-05
1.00061e-05
1.00088e-05
1.00115e-05
1.00136e-05
1.00153e-05
1.00165e-05
1.00174e-05
1.0018e-05
1.00187e-05
1.00194e-05
1.002e-05
1.00203e-05
1.00201e-05
1.00192e-05
1.00175e-05
1.0015e-05
1.0012e-05
1.00088e-05
1.00058e-05
1.00031e-05
1.00012e-05
9.99983e-06
9.99911e-06
9.99874e-06
9.99871e-06
9.99885e-06
9.99905e-06
9.9992e-06
9.99934e-06
9.99936e-06
9.99925e-06
9.99911e-06
9.99905e-06
9.99903e-06
9.99918e-06
9.99944e-06
9.99983e-06
1.00002e-05
1.00003e-05
1.00002e-05
9.99977e-06
9.99911e-06
9.99832e-06
9.99757e-06
9.99717e-06
9.99718e-06
9.99764e-06
9.99853e-06
9.99973e-06
1.00011e-05
1.00023e-05
1.00033e-05
1.00042e-05
1.0005e-05
1.00057e-05
1.00065e-05
1.00071e-05
1.00073e-05
1.00067e-05
1.00051e-05
1.00027e-05
9.99984e-06
9.9969e-06
9.99424e-06
9.99237e-06
9.99118e-06
9.99062e-06
9.9905e-06
9.99069e-06
9.99091e-06
9.99104e-06
9.99106e-06
9.99104e-06
9.99097e-06
9.99091e-06
9.99098e-06
9.99132e-06
9.99194e-06
9.99286e-06
9.99416e-06
9.99573e-06
9.99733e-06
9.99865e-06
9.99952e-06
9.99987e-06
9.99974e-06
9.99936e-06
9.99912e-06
9.99938e-06
1.00002e-05
1.00015e-05
1.0003e-05
1.00043e-05
1.0005e-05
1.00047e-05
1.00034e-05
1.00014e-05
9.99913e-06
9.99708e-06
9.99566e-06
9.99521e-06
9.99556e-06
9.99643e-06
9.99762e-06
9.99885e-06
9.99995e-06
1.00008e-05
1.00015e-05
1.00021e-05
1.00025e-05
1.00027e-05
1.00028e-05
1.00029e-05
1.00031e-05
1.00034e-05
1.00039e-05
1.00046e-05
1.00054e-05
1.00062e-05
1.00069e-05
1.00071e-05
1.00069e-05
1.00061e-05
1.00049e-05
1.00032e-05
1.00014e-05
9.99953e-06
9.99779e-06
9.99621e-06
9.99491e-06
9.99402e-06
9.99357e-06
9.99355e-06
9.99399e-06
9.99483e-06
9.99602e-06
9.99749e-06
9.99926e-06
1.00012e-05
1.00033e-05
1.00049e-05
1.00057e-05
1.00053e-05
1.00036e-05
1.00007e-05
9.99733e-06
9.99426e-06
9.99203e-06
9.99096e-06
9.99107e-06
9.99209e-06
9.99361e-06
9.99511e-06
9.99633e-06
9.99715e-06
9.99763e-06
9.99783e-06
9.99798e-06
9.99827e-06
9.9988e-06
9.99952e-06
1.00004e-05
1.00015e-05
1.00026e-05
1.00036e-05
1.00046e-05
1.00055e-05
1.00064e-05
1.00071e-05
1.00076e-05
1.00079e-05
1.0008e-05
1.00076e-05
1.00068e-05
1.00057e-05
1.0004e-05
1.0002e-05
9.99993e-06
9.99798e-06
9.99634e-06
9.99507e-06
9.99422e-06
9.99374e-06
9.99352e-06
9.99343e-06
9.99342e-06
9.99349e-06
9.99358e-06
9.99354e-06
9.99335e-06
9.99304e-06
9.9927e-06
9.99242e-06
9.99244e-06
9.99292e-06
9.99392e-06
9.99531e-06
9.99699e-06
9.99877e-06
1.00005e-05
1.00019e-05
1.00029e-05
1.00034e-05
1.00035e-05
1.00032e-05
1.00028e-05
1.00025e-05
1.00027e-05
1.00032e-05
1.00042e-05
1.00056e-05
1.00071e-05
1.00086e-05
1.00098e-05
1.00107e-05
1.00111e-05
1.0011e-05
1.00106e-05
1.00099e-05
1.00089e-05
1.00078e-05
1.00067e-05
1.00058e-05
1.00053e-05
1.0005e-05
1.00051e-05
1.00053e-05
1.00056e-05
1.00059e-05
1.00062e-05
1.00063e-05
1.0006e-05
1.0005e-05
1.00031e-05
1.00002e-05
9.9964e-06
9.99183e-06
9.98751e-06
9.98394e-06
9.98175e-06
9.98091e-06
9.98163e-06
9.98368e-06
9.98657e-06
9.99016e-06
9.99378e-06
9.99736e-06
1.00005e-05
1.00032e-05
1.00053e-05
1.00068e-05
1.00077e-05
1.00082e-05
1.00084e-05
1.00085e-05
1.00085e-05
1.00085e-05
1.00084e-05
1.00082e-05
1.0008e-05
1.00077e-05
1.00073e-05
1.00067e-05
1.00061e-05
1.00053e-05
1.00045e-05
1.00036e-05
1.00026e-05
1.00015e-05
1.00007e-05
1.00002e-05
1.00001e-05
1.00005e-05
1.00012e-05
1.00021e-05
1.00029e-05
1.00033e-05
1.00032e-05
1.00027e-05
1.00017e-05
1.00003e-05
9.99896e-06
9.99791e-06
9.99735e-06
9.99739e-06
9.99797e-06
9.99887e-06
9.9998e-06
1.00005e-05
1.00009e-05
1.00009e-05
1.00005e-05
9.99974e-06
9.99889e-06
9.99794e-06
9.99694e-06
9.99585e-06
9.99497e-06
9.99435e-06
9.99404e-06
9.9941e-06
9.99467e-06
9.9957e-06
9.997e-06
9.99844e-06
9.9998e-06
1.00009e-05
1.00016e-05
1.00018e-05
1.00013e-05
1.00003e-05
9.99895e-06
9.99742e-06
9.99615e-06
9.99541e-06
9.99537e-06
9.996e-06
9.99701e-06
9.99821e-06
9.99933e-06
1.00003e-05
1.00008e-05
1.0001e-05
1.00009e-05
1.00004e-05
9.99961e-06
9.99854e-06
9.99746e-06
9.99656e-06
9.99595e-06
9.99571e-06
9.99583e-06
9.99615e-06
9.99645e-06
9.9967e-06
9.99692e-06
9.99722e-06
9.99765e-06
9.99838e-06
9.99944e-06
1.00009e-05
1.00026e-05
1.00047e-05
1.0007e-05
1.00098e-05
1.00128e-05
1.00158e-05
1.00184e-05
1.00203e-05
1.00208e-05
1.002e-05
1.00178e-05
1.00147e-05
1.0011e-05
1.00072e-05
1.00037e-05
1.00005e-05
9.9975e-06
9.99468e-06
9.99203e-06
9.98952e-06
9.98723e-06
9.98531e-06
9.98398e-06
9.98331e-06
9.98327e-06
9.98385e-06
9.98493e-06
9.98635e-06
9.98778e-06
9.98907e-06
9.99004e-06
9.99067e-06
9.99094e-06
9.99102e-06
9.99112e-06
9.99142e-06
9.99198e-06
9.99294e-06
9.99431e-06
9.99611e-06
9.99816e-06
1.00004e-05
1.00028e-05
1.00051e-05
1.00073e-05
1.00091e-05
1.00107e-05
1.00118e-05
1.00126e-05
1.00132e-05
1.00136e-05
1.00138e-05
1.00138e-05
1.00136e-05
1.00131e-05
1.00121e-05
1.00106e-05
1.00085e-05
1.00062e-05
1.0004e-05
1.00021e-05
1.0001e-05
1.00009e-05
1.00016e-05
1.0003e-05
1.00048e-05
1.00065e-05
1.00077e-05
1.0008e-05
1.00075e-05
1.0006e-05
1.00037e-05
1.0001e-05
9.99824e-06
9.996e-06
9.99455e-06
9.99399e-06
9.99449e-06
9.99586e-06
9.99768e-06
9.99961e-06
1.00011e-05
1.00021e-05
1.00024e-05
1.00023e-05
1.00023e-05
1.00027e-05
1.00038e-05
1.00055e-05
1.00075e-05
1.00095e-05
1.00109e-05
1.00116e-05
1.00115e-05
1.00108e-05
1.00098e-05
1.00085e-05
1.00071e-05
1.00054e-05
1.00034e-05
1.0001e-05
9.99867e-06
9.99673e-06
9.99572e-06
9.996e-06
9.99773e-06
1.00009e-05
1.00048e-05
1.00092e-05
1.0013e-05
1.00158e-05
1.00171e-05
1.00168e-05
1.00152e-05
1.00123e-05
1.0009e-05
1.00054e-05
1.00023e-05
9.99962e-06
9.99754e-06
9.99583e-06
9.9945e-06
9.99337e-06
9.99246e-06
9.99182e-06
9.99161e-06
9.9918e-06
9.99227e-06
9.99293e-06
9.99361e-06
9.99417e-06
9.99447e-06
9.99452e-06
9.99441e-06
9.99419e-06
9.99379e-06
9.9932e-06
9.99235e-06
9.99138e-06
9.99035e-06
9.98941e-06
9.98878e-06
9.9886e-06
9.98877e-06
9.98909e-06
9.98934e-06
9.98934e-06
9.98898e-06
9.9883e-06
9.98756e-06
9.98686e-06
9.98652e-06
9.98663e-06
9.98733e-06
9.98873e-06
9.99091e-06
9.99413e-06
9.99839e-06
1.00037e-05
1.00097e-05
1.00161e-05
1.00218e-05
1.00265e-05
1.00294e-05
1.00305e-05
1.003e-05
1.00281e-05
1.00256e-05
1.00227e-05
1.00199e-05
1.00172e-05
1.00146e-05
1.00118e-05
1.00087e-05
1.00053e-05
1.00017e-05
9.99806e-06
9.99463e-06
9.9916e-06
9.98926e-06
9.98758e-06
9.98649e-06
9.9859e-06
9.98571e-06
9.98579e-06
9.98604e-06
9.98653e-06
9.98737e-06
9.98873e-06
9.99064e-06
9.99326e-06
9.99654e-06
1.00005e-05
1.00048e-05
1.00094e-05
1.00137e-05
1.00176e-05
1.00205e-05
1.00224e-05
1.00232e-05
1.00231e-05
1.00223e-05
1.00212e-05
1.00202e-05
1.00192e-05
1.00179e-05
1.00158e-05
1.00127e-05
1.00081e-05
1.00022e-05
9.99508e-06
9.98801e-06
9.98172e-06
9.97728e-06
9.97546e-06
9.97667e-06
9.98065e-06
9.98642e-06
9.99291e-06
9.9987e-06
1.00029e-05
1.00049e-05
1.00045e-05
1.00023e-05
9.99899e-06
9.99528e-06
9.99179e-06
9.98902e-06
9.987e-06
9.98568e-06
9.98502e-06
9.98505e-06
9.98595e-06
9.98786e-06
9.99104e-06
9.99535e-06
1.00006e-05
1.00059e-05
1.00105e-05
1.00136e-05
1.00149e-05
1.00144e-05
1.00124e-05
1.00097e-05
1.00069e-05
1.00046e-05
1.0003e-05
1.00022e-05
1.00019e-05
1.00018e-05
1.00016e-05
1.0001e-05
9.99996e-06
9.99833e-06
9.99626e-06
9.99411e-06
9.99211e-06
9.9905e-06
9.98946e-06
9.98912e-06
9.9894e-06
9.99011e-06
9.99117e-06
9.99242e-06
9.99375e-06
9.9952e-06
9.99681e-06
9.99871e-06
1.00008e-05
1.00031e-05
1.00054e-05
1.00075e-05
1.00091e-05
1.00101e-05
1.00105e-05
1.00102e-05
1.00094e-05
1.00083e-05
1.00072e-05
1.00061e-05
1.00053e-05
1.00047e-05
1.00044e-05
1.00044e-05
1.00045e-05
1.00045e-05
1.00043e-05
1.00037e-05
1.00027e-05
1.00013e-05
9.99987e-06
9.99862e-06
9.99782e-06
9.99744e-06
9.99761e-06
9.99825e-06
9.99919e-06
1.00003e-05
1.00013e-05
1.00023e-05
1.00031e-05
1.00035e-05
1.00037e-05
1.00038e-05
1.00036e-05
1.00033e-05
1.00028e-05
1.00022e-05
1.00016e-05
1.00008e-05
9.99966e-06
9.99809e-06
9.99603e-06
9.99343e-06
9.99054e-06
9.98756e-06
9.98467e-06
9.98219e-06
9.98033e-06
9.97932e-06
9.97915e-06
9.97985e-06
9.98142e-06
9.98382e-06
9.98678e-06
9.99023e-06
9.99374e-06
9.99714e-06
1e-05
1.00024e-05
1.0004e-05
1.00048e-05
1.00049e-05
1.00043e-05
1.00033e-05
1.00021e-05
1.00009e-05
9.99978e-06
9.99888e-06
9.99821e-06
9.99774e-06
9.99736e-06
9.99706e-06
9.9968e-06
9.9966e-06
9.99665e-06
9.99707e-06
9.99801e-06
9.99948e-06
1.00014e-05
1.00036e-05
1.00058e-05
1.00077e-05
1.00091e-05
1.00099e-05
1.00101e-05
1.001e-05
1.00097e-05
1.00093e-05
1.0009e-05
1.00087e-05
1.00082e-05
1.00075e-05
1.00065e-05
1.0005e-05
1.00032e-05
1.00012e-05
9.99927e-06
9.99761e-06
9.99633e-06
9.99545e-06
9.99498e-06
9.99491e-06
9.99515e-06
9.99555e-06
9.99608e-06
9.9967e-06
9.99735e-06
9.99789e-06
9.99834e-06
9.99876e-06
9.99926e-06
9.99987e-06
1.00007e-05
1.00019e-05
1.00034e-05
1.0005e-05
1.00068e-05
1.00084e-05
1.00097e-05
1.00102e-05
1.00098e-05
1.00086e-05
1.00067e-05
1.00045e-05
1.00022e-05
1.00006e-05
9.99977e-06
9.99987e-06
1.00007e-05
1.00021e-05
1.00035e-05
1.00047e-05
1.00054e-05
1.00056e-05
1.00055e-05
1.00051e-05
1.00046e-05
1.00043e-05
1.00042e-05
1.0004e-05
1.00038e-05
1.00035e-05
1.00027e-05
1.00015e-05
9.99983e-06
9.99799e-06
9.99618e-06
9.99471e-06
9.99383e-06
9.9937e-06
9.99422e-06
9.99508e-06
9.99599e-06
9.9967e-06
9.99711e-06
9.99717e-06
9.99709e-06
9.99712e-06
9.99742e-06
9.99796e-06
9.99866e-06
9.99931e-06
9.99971e-06
9.99963e-06
9.99903e-06
9.99801e-06
9.9967e-06
9.99525e-06
9.99383e-06
9.99261e-06
9.99156e-06
9.9907e-06
9.99009e-06
9.98987e-06
9.99017e-06
9.99109e-06
9.99273e-06
9.99503e-06
9.99784e-06
1.00007e-05
1.00034e-05
1.00053e-05
1.00064e-05
1.00064e-05
1.00054e-05
1.00036e-05
1.00013e-05
9.99888e-06
9.99673e-06
9.99525e-06
9.99463e-06
9.99501e-06
9.9964e-06
9.99861e-06
1.00011e-05
1.00036e-05
1.00052e-05
1.00057e-05
1.0005e-05
1.00028e-05
9.99982e-06
9.9964e-06
9.99328e-06
9.99068e-06
9.9893e-06
9.98909e-06
9.98992e-06
9.99151e-06
9.99339e-06
9.99535e-06
9.99709e-06
9.99858e-06
9.99975e-06
1.00007e-05
1.00016e-05
1.00024e-05
1.00032e-05
1.00039e-05
1.00044e-05
1.00046e-05
1.00045e-05
1.00038e-05
1.00027e-05
1.00009e-05
9.99897e-06
9.99676e-06
9.99471e-06
9.99287e-06
9.99179e-06
9.99142e-06
9.99175e-06
9.99256e-06
9.99355e-06
9.99437e-06
9.99467e-06
9.99427e-06
9.99336e-06
9.99212e-06
9.99118e-06
9.99093e-06
9.99189e-06
9.99433e-06
9.99799e-06
1.00029e-05
1.00079e-05
1.00128e-05
1.00165e-05
1.00189e-05
1.00196e-05
1.00187e-05
1.00166e-05
1.00133e-05
1.00099e-05
1.00062e-05
1.00031e-05
1.00004e-05
9.99874e-06
9.99776e-06
9.99763e-06
9.99815e-06
9.99913e-06
1.00004e-05
1.00017e-05
1.00029e-05
1.0004e-05
1.00049e-05
1.00056e-05
1.00061e-05
1.00065e-05
1.00064e-05
1.00059e-05
1.00046e-05
1.00026e-05
9.99977e-06
9.9965e-06
9.99294e-06
9.98971e-06
9.98697e-06
9.98524e-06
9.98461e-06
9.98534e-06
9.98734e-06
9.99028e-06
9.994e-06
9.9978e-06
1.00014e-05
1.00041e-05
1.00058e-05
1.00063e-05
1.00056e-05
1.00041e-05
1.00021e-05
1e-05
9.99813e-06
9.99683e-06
9.99615e-06
9.99598e-06
9.99622e-06
9.99668e-06
9.9972e-06
9.99763e-06
9.99794e-06
9.99817e-06
9.9984e-06
9.99868e-06
9.99914e-06
9.99988e-06
1.00009e-05
1.0002e-05
1.00031e-05
1.00039e-05
1.00042e-05
1.00038e-05
1.00027e-05
1.0001e-05
9.99901e-06
9.99697e-06
9.99521e-06
9.99411e-06
9.9938e-06
9.99426e-06
9.9954e-06
9.99699e-06
9.99879e-06
1.00004e-05
1.00017e-05
1.00025e-05
1.00029e-05
1.00029e-05
1.00025e-05
1.00021e-05
1.00016e-05
1.0001e-05
1.00002e-05
9.99913e-06
9.99773e-06
9.99595e-06
9.99393e-06
9.99199e-06
9.99038e-06
9.98941e-06
9.98934e-06
9.99029e-06
9.99224e-06
9.99486e-06
9.99787e-06
1.00008e-05
1.00033e-05
1.00048e-05
1.00054e-05
1.0005e-05
1.00037e-05
1.00019e-05
9.99985e-06
9.99803e-06
9.99659e-06
9.99566e-06
9.99529e-06
9.99546e-06
9.99603e-06
9.99675e-06
9.99756e-06
9.99839e-06
9.99913e-06
9.99957e-06
9.99962e-06
9.99929e-06
9.9986e-06
9.99765e-06
9.99667e-06
9.996e-06
9.9958e-06
9.99609e-06
9.99686e-06
9.99794e-06
9.99914e-06
1.00001e-05
1.00008e-05
1.00012e-05
1.00013e-05
1.00011e-05
1.00007e-05
1.00003e-05
1e-05
9.99993e-06
1.00001e-05
1.00005e-05
1.00013e-05
1.00022e-05
1.00033e-05
1.00044e-05
1.00054e-05
1.00062e-05
1.00066e-05
1.00067e-05
1.00065e-05
1.00059e-05
1.00051e-05
1.00042e-05
1.00034e-05
1.00028e-05
1.00024e-05
1.00024e-05
1.00027e-05
1.0003e-05
1.00034e-05
1.00037e-05
1.00037e-05
1.00033e-05
1.00025e-05
1.00014e-05
1.00001e-05
9.99847e-06
9.99702e-06
9.99573e-06
9.99488e-06
9.99442e-06
9.99446e-06
9.99488e-06
9.99555e-06
9.99626e-06
9.99679e-06
9.99708e-06
9.99705e-06
9.99657e-06
9.99582e-06
9.99481e-06
9.99387e-06
9.99298e-06
9.99243e-06
9.99223e-06
9.99255e-06
9.9934e-06
9.99469e-06
9.9963e-06
9.99799e-06
9.99969e-06
1.00011e-05
1.00022e-05
1.00029e-05
1.00031e-05
1.00029e-05
1.00023e-05
1.00014e-05
1.00002e-05
9.99918e-06
9.99815e-06
9.99747e-06
9.99707e-06
9.99708e-06
9.99743e-06
9.99807e-06
9.99892e-06
9.99983e-06
1.00007e-05
1.00015e-05
1.0002e-05
1.00022e-05
1.00021e-05
1.00018e-05
1.00014e-05
1.00012e-05
1.00011e-05
1.00011e-05
1.00013e-05
1.00015e-05
1.00017e-05
1.00017e-05
1.00014e-05
1.00008e-05
9.99998e-06
9.99917e-06
9.99837e-06
9.99784e-06
9.99759e-06
9.99771e-06
9.99811e-06
9.99873e-06
9.99947e-06
1.00002e-05
1.00008e-05
1.00013e-05
1.00017e-05
1.00019e-05
1.00019e-05
1.00018e-05
1.00016e-05
1.00014e-05
1.00011e-05
1.00009e-05
1.00007e-05
1.00005e-05
1.00002e-05
9.99987e-06
9.99937e-06
9.99882e-06
9.99832e-06
9.99794e-06
9.99784e-06
9.9981e-06
9.99873e-06
9.99959e-06
1.00006e-05
1.00016e-05
1.00024e-05
1.00028e-05
1.00028e-05
1.00024e-05
1.00017e-05
1.00007e-05
9.99956e-06
9.99851e-06
9.99765e-06
9.99708e-06
9.99688e-06
9.99715e-06
9.99787e-06
9.9989e-06
1.00001e-05
1.00015e-05
1.00027e-05
1.00037e-05
1.00042e-05
1.00043e-05
1.00039e-05
1.00029e-05
1.00014e-05
9.99962e-06
9.99776e-06
9.996e-06
9.99459e-06
9.99379e-06
9.99368e-06
9.99421e-06
9.99534e-06
9.99683e-06
9.99851e-06
1e-05
1.00011e-05
1.00017e-05
1.00017e-05
1.00011e-05
1.00001e-05
9.99896e-06
9.99791e-06
9.99707e-06
9.99661e-06
9.99668e-06
9.99728e-06
9.99826e-06
9.99951e-06
1.00008e-05
1.0002e-05
1.00028e-05
1.00031e-05
1.0003e-05
1.00025e-05
1.00017e-05
1.00007e-05
9.99964e-06
9.99866e-06
9.99775e-06
9.99696e-06
9.99637e-06
9.99599e-06
9.99581e-06
9.99588e-06
9.99627e-06
9.99702e-06
9.99805e-06
9.99933e-06
1.00008e-05
1.00023e-05
1.00036e-05
1.00047e-05
1.00054e-05
1.00057e-05
1.00056e-05
1.00051e-05
1.00043e-05
1.00034e-05
1.00023e-05
1.00013e-05
1.00004e-05
9.99979e-06
9.99927e-06
9.99896e-06
9.99881e-06
9.99889e-06
9.99914e-06
9.99948e-06
9.99986e-06
1.00002e-05
1.00005e-05
1.00006e-05
1.00008e-05
1.00009e-05
1.00011e-05
1.00013e-05
1.00015e-05
1.00019e-05
1.00021e-05
1.00023e-05
1.00023e-05
1.0002e-05
1.00016e-05
1.00009e-05
1.00002e-05
9.9996e-06
9.99902e-06
9.99856e-06
9.99816e-06
9.99789e-06
9.99766e-06
9.99757e-06
9.99765e-06
9.99803e-06
9.99869e-06
9.99947e-06
1.00001e-05
1.00002e-05
9.99906e-06
9.99649e-06
9.99221e-06
9.98724e-06
9.98175e-06
9.97804e-06
9.97708e-06
9.98035e-06
9.98866e-06
1.00017e-05
1.00202e-05
1.00414e-05
1.00683e-05
1.00958e-05
1.01268e-05
1.01551e-05
1.01835e-05
1.02024e-05
1.02088e-05
1.0196e-05
1.01572e-05
1.00916e-05
9.98996e-06
9.86459e-06
9.69599e-06
9.51763e-06
9.32864e-06
9.15048e-06
8.98402e-06
8.87386e-06
8.82528e-06
8.85779e-06
8.9685e-06
9.14289e-06
9.378e-06
9.67986e-06
1.00234e-05
1.0334e-05
1.07028e-05
1.10337e-05
1.14088e-05
1.17024e-05
1.20774e-05
1.24975e-05
1.29288e-05
1.32448e-05
1.36252e-05
1.41747e-05
1.47279e-05
1.56624e-05
1.67614e-05
1.8025e-05
1.92769e-05
2.04859e-05
2.12069e-05
2.16949e-05
2.18459e-05
2.23144e-05
2.31943e-05
2.47393e-05
2.6703e-05
2.80189e-05
2.75836e-05
2.50512e-05
2.24405e-05
2.75045e-05
4.56264e-05
6.99443e-05
9.66526e-05
0.000124548
0.000145414
0.000163364
0.000177856
0.000185569
0.000196554
0.000234903
0.000226378
0.000229421
0.000237691
0.000244811
0.000240242
0.000223814
0.000246852
0.000249489
0.000242038
0.00024431
0.000231787
0.00021651
0.000207487
0.000206037
0.000214945
0.000217315
0.000197669
0.000191286
0.000192832
0.000195214
0.000187688
0.00019751
0.000170512
0.000178217
0.0001677
0.000171903
0.000172178
0.000167818
0.000156786
0.000157637
0.000146862
0.000135943
0.000127165
0.00012271
0.000117188
0.000114004
0.000109329
0.000102378
9.59052e-05
9.04211e-05
8.43478e-05
7.85304e-05
7.30924e-05
6.62615e-05
5.98442e-05
5.55301e-05
5.41261e-05
5.51556e-05
5.73574e-05
5.95643e-05
6.11639e-05
6.18415e-05
6.16077e-05
6.06033e-05
5.90549e-05
5.72888e-05
5.55046e-05
5.38947e-05
5.25086e-05
5.13706e-05
5.03292e-05
4.92489e-05
4.80069e-05
4.66107e-05
4.50247e-05
4.32759e-05
4.13168e-05
3.91926e-05
3.68246e-05
3.42396e-05
3.14543e-05
2.87522e-05
2.62624e-05
2.41554e-05
2.25698e-05
2.19148e-05
2.24445e-05
2.43263e-05
2.73872e-05
3.05036e-05
3.32042e-05
3.50022e-05
3.43153e-05
2.98292e-05
2.43872e-05
2.38032e-05
3.90017e-05
5.20613e-05
5.9943e-05
6.67764e-05
7.12939e-05
7.35936e-05
7.42628e-05
7.43138e-05
7.39166e-05
7.30651e-05
7.18881e-05
7.04662e-05
6.91962e-05
6.81322e-05
6.73276e-05
6.67069e-05
6.64209e-05
6.64687e-05
6.6734e-05
6.71344e-05
6.7582e-05
6.80923e-05
6.85466e-05
6.89365e-05
6.91908e-05
6.93737e-05
6.94726e-05
6.94863e-05
6.94101e-05
6.92959e-05
6.91678e-05
6.90248e-05
6.88805e-05
6.87759e-05
6.87093e-05
6.86207e-05
6.85699e-05
6.85281e-05
6.85233e-05
6.85345e-05
6.85487e-05
6.85877e-05
6.86456e-05
6.86041e-05
6.86747e-05
6.87499e-05
6.87352e-05
6.88105e-05
6.87643e-05
6.87439e-05
6.8696e-05
6.86359e-05
6.8597e-05
6.85667e-05
6.85772e-05
6.86037e-05
6.85748e-05
6.85878e-05
6.85864e-05
6.85977e-05
6.85588e-05
6.85643e-05
6.85536e-05
6.85562e-05
6.85262e-05
6.85871e-05
6.85835e-05
6.85802e-05
6.86377e-05
6.86355e-05
6.86607e-05
6.86809e-05
6.86522e-05
6.87e-05
6.8675e-05
6.87104e-05
6.87106e-05
6.8738e-05
6.87491e-05
6.86717e-05
6.86716e-05
6.86031e-05
6.85772e-05
6.85537e-05
6.85709e-05
6.85486e-05
6.8533e-05
6.85287e-05
6.85544e-05
6.85967e-05
6.87031e-05
6.87875e-05
6.88425e-05
6.88961e-05
6.89205e-05
6.88769e-05
6.88059e-05
6.87284e-05
6.86349e-05
6.85273e-05
6.84585e-05
6.8458e-05
6.85066e-05
6.85742e-05
6.86844e-05
6.88322e-05
6.89513e-05
6.89839e-05
6.89539e-05
6.88631e-05
6.86896e-05
6.84395e-05
6.82055e-05
6.80596e-05
6.80406e-05
6.81515e-05
6.84435e-05
6.88936e-05
6.93479e-05
6.96628e-05
6.98217e-05
6.97731e-05
6.93908e-05
6.86548e-05
6.77696e-05
6.70037e-05
6.66107e-05
6.6747e-05
6.76862e-05
6.95664e-05
7.18349e-05
7.35831e-05
7.44263e-05
7.4162e-05
7.12484e-05
6.286e-05
4.76822e-05
2.91438e-05
2.35936e-05
2.44063e-05
2.67537e-05
2.77405e-05
2.83365e-05
2.87912e-05
2.8121e-05
2.61362e-05
2.38102e-05
2.21541e-05
2.13012e-05
2.08309e-05
2.08342e-05
2.14288e-05
2.23924e-05
2.3381e-05
2.42913e-05
2.52955e-05
2.63887e-05
2.74843e-05
2.84994e-05
2.95278e-05
3.05778e-05
3.16767e-05
3.27995e-05
3.39711e-05
3.51164e-05
3.62224e-05
3.72503e-05
3.82505e-05
3.91945e-05
4.01126e-05
4.10213e-05
4.20065e-05
4.30424e-05
4.41401e-05
4.52551e-05
4.64035e-05
4.75095e-05
4.85703e-05
4.95661e-05
5.05566e-05
5.15217e-05
5.24994e-05
5.34939e-05
5.45511e-05
5.56164e-05
5.66786e-05
5.76874e-05
5.86643e-05
5.95473e-05
6.03547e-05
6.13053e-05
6.2008e-05
6.25923e-05
6.32743e-05
6.38263e-05
6.42858e-05
6.46759e-05
6.49576e-05
6.51462e-05
6.52757e-05
6.52948e-05
6.52506e-05
6.50959e-05
6.48479e-05
6.451e-05
6.41067e-05
6.35798e-05
6.29709e-05
6.22053e-05
6.13506e-05
6.02896e-05
5.915e-05
5.78137e-05
5.64412e-05
5.48756e-05
5.33013e-05
5.16246e-05
5.0035e-05
4.83546e-05
4.67823e-05
4.51572e-05
4.36398e-05
4.20363e-05
4.05299e-05
3.90029e-05
3.76212e-05
3.62391e-05
3.50185e-05
3.38477e-05
3.28645e-05
3.18853e-05
3.10114e-05
3.0144e-05
2.93872e-05
2.85814e-05
2.77785e-05
2.71095e-05
2.62791e-05
2.55279e-05
2.47198e-05
2.40235e-05
2.31928e-05
2.24707e-05
2.17141e-05
2.09667e-05
2.02156e-05
1.94511e-05
1.86674e-05
1.7775e-05
1.70118e-05
1.62089e-05
1.54034e-05
1.46515e-05
1.3902e-05
1.31821e-05
1.25126e-05
1.18268e-05
1.12076e-05
1.06511e-05
1.01571e-05
9.73376e-06
9.37882e-06
9.0912e-06
8.8838e-06
8.72959e-06
8.63902e-06
8.61992e-06
8.65207e-06
8.72268e-06
8.83281e-06
8.96996e-06
9.11797e-06
9.27582e-06
9.43641e-06
9.58084e-06
9.71997e-06
9.84524e-06
9.95118e-06
1.00442e-05
1.01133e-05
1.01685e-05
1.0207e-05
1.02273e-05
1.02352e-05
1.02321e-05
1.02199e-05
1.01989e-05
1.01739e-05
1.01451e-05
1.01161e-05
1.0087e-05
1.00605e-05
1.00375e-05
1.00178e-05
1.00009e-05
9.98829e-06
9.97942e-06
9.97348e-06
9.97006e-06
9.96927e-06
9.97054e-06
9.97336e-06
9.97748e-06
9.98234e-06
9.9875e-06
9.99248e-06
9.99697e-06
1.00004e-05
1.00025e-05
1.00032e-05
1.00026e-05
1.0001e-05
9.99875e-06
9.99647e-06
9.99459e-06
9.99355e-06
9.99347e-06
9.99414e-06
9.99533e-06
9.99678e-06
9.99832e-06
9.99971e-06
1.00009e-05
1.0002e-05
1.0003e-05
1.00038e-05
1.00041e-05
1.0004e-05
1.00033e-05
1.00019e-05
9.99984e-06
9.99748e-06
9.99511e-06
9.99311e-06
9.99183e-06
9.99165e-06
9.99271e-06
9.9948e-06
9.9976e-06
1.00005e-05
1.00031e-05
1.00049e-05
1.00056e-05
1.00054e-05
1.00045e-05
1.00035e-05
1.00027e-05
1.00025e-05
1.00029e-05
1.00038e-05
1.00048e-05
1.00055e-05
1.00059e-05
1.00055e-05
1.00046e-05
1.00032e-05
1.00016e-05
9.99991e-06
9.99831e-06
9.997e-06
9.99604e-06
9.99544e-06
9.99526e-06
9.99559e-06
9.99645e-06
9.99769e-06
9.99924e-06
1.00009e-05
1.00026e-05
1.00039e-05
1.00047e-05
1.00048e-05
1.00041e-05
1.00026e-05
1.00006e-05
9.99833e-06
9.99606e-06
9.99407e-06
9.99253e-06
9.99168e-06
9.99161e-06
9.99222e-06
9.99345e-06
9.99515e-06
9.99714e-06
9.99912e-06
1.00009e-05
1.00022e-05
1.00029e-05
1.0003e-05
1.00026e-05
1.00021e-05
1.00016e-05
1.00011e-05
1.00006e-05
1.00001e-05
9.99972e-06
9.9993e-06
9.99893e-06
9.99852e-06
9.99808e-06
9.99747e-06
9.99679e-06
9.99598e-06
9.9953e-06
9.99486e-06
9.99497e-06
9.99578e-06
9.99721e-06
9.99908e-06
1.00009e-05
1.00024e-05
1.00031e-05
1.00027e-05
1.00013e-05
9.99902e-06
9.99638e-06
9.99358e-06
9.99138e-06
9.98992e-06
9.98955e-06
9.99012e-06
9.99142e-06
9.99319e-06
9.9951e-06
9.9971e-06
9.99884e-06
1.00003e-05
1.00013e-05
1.00019e-05
1.00021e-05
1.00019e-05
1.00014e-05
1.00007e-05
9.99983e-06
9.99896e-06
9.99815e-06
9.99757e-06
9.99724e-06
9.99708e-06
9.99702e-06
9.99701e-06
9.99701e-06
9.99705e-06
9.99724e-06
9.99768e-06
9.99844e-06
9.99933e-06
1.00001e-05
1.00005e-05
1.00004e-05
9.99962e-06
9.9986e-06
9.99833e-06
9.99798e-06
9.99778e-06
9.99759e-06
9.99747e-06
9.99739e-06
9.99731e-06
9.99722e-06
9.99721e-06
9.99745e-06
9.9979e-06
9.99846e-06
9.99901e-06
9.99951e-06
9.99996e-06
1.00003e-05
1.00004e-05
1.00005e-05
1.00004e-05
1.00003e-05
1e-05
9.99968e-06
9.99939e-06
9.99914e-06
9.99905e-06
9.99914e-06
9.99948e-06
1e-05
1.00008e-05
1.00016e-05
1.00023e-05
1.00028e-05
1.0003e-05
1.00028e-05
1.00023e-05
1.00015e-05
1.00006e-05
9.99962e-06
9.99873e-06
9.99791e-06
9.9973e-06
9.99699e-06
9.99714e-06
9.9977e-06
9.99853e-06
9.9995e-06
1.00004e-05
1.00011e-05
1.00015e-05
1.00015e-05
1.00013e-05
1.00009e-05
1.00005e-05
1.00001e-05
9.9999e-06
9.99978e-06
9.99976e-06
9.99978e-06
9.99984e-06
9.99985e-06
9.99977e-06
9.99953e-06
9.99918e-06
9.99872e-06
9.99835e-06
9.99814e-06
9.9982e-06
9.99849e-06
9.99897e-06
9.99957e-06
1.00002e-05
1.00008e-05
1.00011e-05
1.00013e-05
1.00012e-05
1.00011e-05
1.00009e-05
1.00008e-05
1.00005e-05
1.00001e-05
9.99978e-06
9.99959e-06
9.99954e-06
9.99962e-06
9.99971e-06
9.99983e-06
9.99992e-06
9.99997e-06
9.99992e-06
9.9999e-06
9.99988e-06
9.99984e-06
9.99974e-06
9.99966e-06
9.9996e-06
9.99951e-06
9.99939e-06
9.9993e-06
9.9992e-06
9.99917e-06
9.99917e-06
9.99931e-06
9.99949e-06
9.99971e-06
9.99988e-06
1.00001e-05
1.00002e-05
1.00003e-05
1.00002e-05
1.00001e-05
9.99992e-06
9.99976e-06
9.99959e-06
9.99952e-06
9.99962e-06
9.99985e-06
1.00001e-05
1.00002e-05
1.00003e-05
1.00003e-05
1.00002e-05
1.00001e-05
1e-05
9.99993e-06
9.99979e-06
9.99971e-06
9.99965e-06
9.99963e-06
9.99962e-06
9.99979e-06
1.00001e-05
1.00007e-05
1.00013e-05
1.0002e-05
1.00026e-05
1.00029e-05
1.00025e-05
1.00011e-05
9.99811e-06
9.99332e-06
9.98766e-06
9.98152e-06
9.97761e-06
9.97832e-06
9.98568e-06
1.00031e-05
1.00281e-05
1.00643e-05
1.01015e-05
1.01436e-05
1.01739e-05
1.01898e-05
1.0181e-05
1.01426e-05
1.00757e-05
9.96356e-06
9.8316e-06
9.64634e-06
9.46232e-06
9.24842e-06
9.07304e-06
8.89397e-06
8.78621e-06
8.73537e-06
8.7561e-06
8.86232e-06
9.04148e-06
9.39971e-06
9.80475e-06
1.04441e-05
1.10976e-05
1.20465e-05
1.29654e-05
1.425e-05
1.53606e-05
1.65199e-05
1.77914e-05
1.9183e-05
2.05372e-05
2.19268e-05
2.33467e-05
2.48449e-05
2.63946e-05
2.78647e-05
2.94497e-05
3.11186e-05
3.28037e-05
3.44074e-05
3.61302e-05
3.82424e-05
4.00989e-05
4.19217e-05
4.36262e-05
4.55638e-05
4.74761e-05
4.92354e-05
5.10511e-05
5.28283e-05
5.45742e-05
5.61451e-05
5.77613e-05
5.94107e-05
6.09201e-05
6.25178e-05
6.38856e-05
6.5389e-05
6.68461e-05
6.81371e-05
6.9443e-05
7.07864e-05
7.19734e-05
7.32613e-05
7.43025e-05
7.54899e-05
7.6592e-05
7.74921e-05
7.83773e-05
7.92709e-05
7.99658e-05
8.07418e-05
8.12891e-05
8.19791e-05
8.26318e-05
8.3136e-05
8.36318e-05
8.41689e-05
8.46036e-05
8.48447e-05
8.47359e-05
8.55542e-05
8.58692e-05
8.61301e-05
8.64535e-05
8.69027e-05
8.73784e-05
8.77241e-05
8.7811e-05
8.88981e-05
8.93934e-05
8.9745e-05
9.00273e-05
9.02745e-05
9.03967e-05
9.03656e-05
9.00017e-05
9.02654e-05
9.0144e-05
8.99845e-05
8.98297e-05
8.96939e-05
8.94601e-05
8.90926e-05
8.85824e-05
8.79865e-05
8.72461e-05
8.64337e-05
8.55537e-05
8.46707e-05
8.37206e-05
8.27426e-05
8.16938e-05
8.06585e-05
7.95909e-05
7.8563e-05
7.74761e-05
7.64032e-05
7.53252e-05
7.43251e-05
7.33946e-05
7.27158e-05
7.22187e-05
7.15431e-05
7.04609e-05
6.90173e-05
6.73876e-05
6.58364e-05
6.4573e-05
6.35494e-05
6.26657e-05
6.17274e-05
6.07465e-05
5.96477e-05
5.86757e-05
5.79237e-05
5.72926e-05
5.66637e-05
5.65402e-05
5.68844e-05
5.75606e-05
5.82101e-05
5.88274e-05
5.93144e-05
5.99431e-05
6.03943e-05
6.09604e-05
6.15372e-05
6.23756e-05
6.31542e-05
6.40308e-05
6.52007e-05
6.68409e-05
6.878e-05
7.12377e-05
7.39619e-05
7.73729e-05
8.13073e-05
8.55641e-05
8.93715e-05
9.47584e-05
9.99363e-05
0.000105209
0.000109092
0.000112431
0.000114163
0.000113779
0.000110333
0.00010614
0.000101783
9.58843e-05
9.01585e-05
8.28842e-05
7.86045e-05
8.55042e-05
0.000113775
0.000178108
0.000247838
0.000284209
0.000300107
0.000359539
0.000330885
0.000338253
0.000353899
0.000363911
0.000349797
0.000352535
0.000406439
0.000353659
0.000353342
0.000340947
0.000341524
0.000345308
0.000324216
0.000345515
0.000391532
0.000340532
0.00032509
0.000351259
0.000334836
0.000352422
0.000356926
0.000371083
0.000345365
0.000368811
0.000380318
0.000333239
0.000331539
0.000360724
0.000387113
0.000339225
0.000353136
0.000365967
0.000320322
0.000347139
0.000348061
0.000363728
0.000335194
0.000347324
0.000342246
0.000346734
0.000348895
0.000353031
0.000347576
0.000352304
0.000345719
0.000337464
0.000317728
0.000329379
0.000367232
0.00034984
0.00033987
0.000360191
0.000360425
0.000357019
0.000346681
0.000364963