/*--------------------------------*- C++ -*----------------------------------*\
| =========                 |                                                 |
| \\      /  F ield         | foam-extend: Open Source CFD                    |
|  \\    /   O peration     | Version:     4.0                                |
|   \\  /    A nd           | Web:         http://www.foam-extend.org         |
|    \\/     M anipulation  |                                                 |
\*---------------------------------------------------------------------------*/
FoamFile
{
    version     2.0;
    format      ascii;
    class       volScalarField;
    location    "0.022";
    object      h;
}
// * * * * * * * * * * * * * * * * * * * * * * * * * * * * * * * * * * * * * //

dimensions      [0 1 0 0 0 0 0];

internalField   nonuniform List<scalar> 
176451
(
1.00028e-05
9.99669e-06
9.9938e-06
9.99814e-06
1.00014e-05
1.00022e-05
9.99839e-06
9.99842e-06
1.00011e-05
1.00033e-05
1.00039e-05
1.00066e-05
1.00006e-05
9.99623e-06
9.99779e-06
9.99623e-06
1.00012e-05
1.00025e-05
1.00047e-05
1.00012e-05
1.00003e-05
1.00008e-05
1.00004e-05
1.00027e-05
1.00046e-05
1.00018e-05
1.00007e-05
9.99847e-06
9.99724e-06
1.00011e-05
9.9971e-06
1.00008e-05
9.99902e-06
9.99445e-06
9.99902e-06
1.00084e-05
1.00044e-05
1.00014e-05
9.99669e-06
9.9978e-06
9.99848e-06
1.00026e-05
9.99633e-06
1.00005e-05
1.00015e-05
1.00006e-05
9.99981e-06
1.00004e-05
1.00046e-05
1.00015e-05
1.00022e-05
9.99749e-06
9.99799e-06
9.99838e-06
9.99992e-06
1.00027e-05
1.0001e-05
9.99937e-06
9.99902e-06
1.00019e-05
1.00021e-05
9.99429e-06
9.99584e-06
1.00016e-05
9.99995e-06
1.00043e-05
1.00026e-05
1.00005e-05
1e-05
9.99936e-06
1.00004e-05
1.0002e-05
9.99992e-06
1.00046e-05
1.00016e-05
1.00015e-05
1.00007e-05
1.00004e-05
9.99752e-06
9.99799e-06
9.99842e-06
1.00024e-05
9.99678e-06
9.99751e-06
1.00007e-05
9.99892e-06
1.00023e-05
1.00029e-05
1.00017e-05
9.99863e-06
1.0005e-05
9.99955e-06
1.00041e-05
9.99955e-06
9.99793e-06
9.99707e-06
9.99696e-06
1.00016e-05
1.00073e-05
9.9945e-06
1.00006e-05
1e-05
1.00028e-05
9.99815e-06
1.00023e-05
9.99927e-06
1.00025e-05
1.00044e-05
1.00035e-05
1.0003e-05
1.00042e-05
1.00017e-05
1.00016e-05
1.00022e-05
1.00023e-05
1.0005e-05
1.00045e-05
1.00001e-05
1.00035e-05
1.00012e-05
9.99867e-06
9.99395e-06
9.99857e-06
9.99624e-06
9.99992e-06
1.00009e-05
9.99765e-06
1.00024e-05
9.99927e-06
1.00029e-05
1.00016e-05
1.00014e-05
1.0001e-05
1.0001e-05
1.00016e-05
9.9974e-06
1.00012e-05
9.99772e-06
1.00008e-05
1.00002e-05
9.99973e-06
9.99905e-06
1.00052e-05
1.00024e-05
9.99589e-06
9.99887e-06
1.00026e-05
9.99989e-06
1.00001e-05
9.99864e-06
1.00044e-05
1e-05
9.99808e-06
1.00003e-05
9.99746e-06
1.00014e-05
9.99942e-06
9.99986e-06
1.00037e-05
1.00004e-05
9.99973e-06
9.9991e-06
9.99772e-06
1.00004e-05
9.99963e-06
1.00029e-05
1.00015e-05
1.0001e-05
9.99861e-06
1.00002e-05
9.99873e-06
9.99979e-06
1.00064e-05
9.99797e-06
9.9985e-06
9.99745e-06
1.00045e-05
9.99439e-06
1.00039e-05
1.00026e-05
1.00007e-05
9.99991e-06
9.99787e-06
1.00015e-05
9.99788e-06
9.99846e-06
1.00026e-05
1.00071e-05
1.00049e-05
1.00006e-05
9.99951e-06
9.99397e-06
9.98828e-06
9.98346e-06
9.98023e-06
9.97929e-06
9.98047e-06
9.98313e-06
9.98657e-06
9.98997e-06
9.99292e-06
9.99511e-06
9.99667e-06
9.99773e-06
9.99852e-06
9.99909e-06
9.99953e-06
9.99979e-06
9.99979e-06
9.99935e-06
9.99849e-06
9.99735e-06
9.99608e-06
9.9949e-06
9.99406e-06
9.99374e-06
9.994e-06
9.99469e-06
9.99572e-06
9.99698e-06
9.99837e-06
9.99968e-06
1.0001e-05
1.00024e-05
1.00041e-05
1.00061e-05
1.00083e-05
1.00107e-05
1.00127e-05
1.00138e-05
1.00137e-05
1.00123e-05
1.00098e-05
1.00067e-05
1.00035e-05
1.0001e-05
9.99942e-06
9.9987e-06
9.99875e-06
9.99917e-06
9.9997e-06
1.00001e-05
1.00005e-05
1.00007e-05
1.00009e-05
1.00009e-05
1.00009e-05
1.00008e-05
1.00005e-05
1.00001e-05
9.99986e-06
9.99966e-06
9.99967e-06
9.99976e-06
9.99992e-06
9.99996e-06
9.99971e-06
9.9991e-06
9.99826e-06
9.99729e-06
9.99638e-06
9.99577e-06
9.99572e-06
9.99624e-06
9.99725e-06
9.99862e-06
1.00001e-05
1.00013e-05
1.00022e-05
1.00027e-05
1.00028e-05
1.00029e-05
1.0003e-05
1.00033e-05
1.00039e-05
1.00043e-05
1.00044e-05
1.00038e-05
1.00026e-05
1.00008e-05
9.99859e-06
9.9963e-06
9.99437e-06
9.99283e-06
9.99175e-06
9.99107e-06
9.99076e-06
9.99058e-06
9.99039e-06
9.99013e-06
9.98988e-06
9.9896e-06
9.98936e-06
9.98928e-06
9.98947e-06
9.98991e-06
9.99064e-06
9.99174e-06
9.99318e-06
9.99477e-06
9.99626e-06
9.99751e-06
9.99837e-06
9.99878e-06
9.99888e-06
9.99897e-06
9.99937e-06
1.00002e-05
1.00015e-05
1.00032e-05
1.0005e-05
1.00065e-05
1.00072e-05
1.00073e-05
1.00067e-05
1.00057e-05
1.00047e-05
1.0004e-05
1.00038e-05
1.00039e-05
1.00042e-05
1.00046e-05
1.0005e-05
1.00053e-05
1.00055e-05
1.00056e-05
1.00057e-05
1.00057e-05
1.00055e-05
1.00052e-05
1.00049e-05
1.00045e-05
1.00042e-05
1.0004e-05
1.00039e-05
1.00037e-05
1.00037e-05
1.00036e-05
1.00033e-05
1.00029e-05
1.00024e-05
1.00016e-05
1.00007e-05
9.99962e-06
9.99846e-06
9.99717e-06
9.99574e-06
9.9943e-06
9.99305e-06
9.99216e-06
9.99176e-06
9.99197e-06
9.99283e-06
9.99432e-06
9.9963e-06
9.99875e-06
1.00015e-05
1.00043e-05
1.00065e-05
1.00077e-05
1.00076e-05
1.00058e-05
1.00028e-05
9.999e-06
9.99539e-06
9.99257e-06
9.991e-06
9.99081e-06
9.99181e-06
9.99361e-06
9.9956e-06
9.99741e-06
9.99874e-06
9.99953e-06
9.9998e-06
9.99978e-06
9.99974e-06
9.99988e-06
1.00002e-05
1.00008e-05
1.00017e-05
1.00027e-05
1.00037e-05
1.00047e-05
1.00056e-05
1.00066e-05
1.00074e-05
1.0008e-05
1.00084e-05
1.00085e-05
1.00083e-05
1.00075e-05
1.00064e-05
1.00047e-05
1.00026e-05
1.00002e-05
9.99793e-06
9.99592e-06
9.99429e-06
9.99312e-06
9.99243e-06
9.99217e-06
9.99222e-06
9.99256e-06
9.99315e-06
9.9939e-06
9.9946e-06
9.99516e-06
9.99554e-06
9.99584e-06
9.99613e-06
9.99662e-06
9.9975e-06
9.99881e-06
1.00004e-05
1.0002e-05
1.00036e-05
1.00049e-05
1.00057e-05
1.0006e-05
1.00058e-05
1.00053e-05
1.00045e-05
1.00036e-05
1.0003e-05
1.00027e-05
1.00028e-05
1.00033e-05
1.00042e-05
1.00053e-05
1.00064e-05
1.00075e-05
1.00085e-05
1.00091e-05
1.00093e-05
1.00091e-05
1.00085e-05
1.00075e-05
1.00063e-05
1.00052e-05
1.00044e-05
1.00042e-05
1.00043e-05
1.00048e-05
1.00055e-05
1.00061e-05
1.00065e-05
1.00069e-05
1.0007e-05
1.00067e-05
1.00057e-05
1.00039e-05
1.00011e-05
9.99736e-06
9.9928e-06
9.98837e-06
9.98454e-06
9.98195e-06
9.98052e-06
9.98058e-06
9.98189e-06
9.98411e-06
9.9871e-06
9.99035e-06
9.99381e-06
9.9971e-06
1.00003e-05
1.00029e-05
1.0005e-05
1.00066e-05
1.00076e-05
1.00082e-05
1.00085e-05
1.00086e-05
1.00085e-05
1.00083e-05
1.00079e-05
1.00073e-05
1.00064e-05
1.00053e-05
1.00042e-05
1.0003e-05
1.0002e-05
1.00011e-05
1.00004e-05
9.99988e-06
9.99945e-06
9.99919e-06
9.99919e-06
9.99944e-06
9.99992e-06
1.00006e-05
1.00013e-05
1.00019e-05
1.00021e-05
1.00019e-05
1.00013e-05
1.00004e-05
9.99934e-06
9.99836e-06
9.99773e-06
9.99761e-06
9.99803e-06
9.99901e-06
1.00003e-05
1.00015e-05
1.00026e-05
1.00033e-05
1.00035e-05
1.00033e-05
1.00027e-05
1.00021e-05
1.00013e-05
1.00005e-05
9.9996e-06
9.99883e-06
9.99819e-06
9.99772e-06
9.99746e-06
9.99759e-06
9.99808e-06
9.99883e-06
9.99977e-06
1.00008e-05
1.00017e-05
1.00023e-05
1.00025e-05
1.00023e-05
1.00014e-05
1.00001e-05
9.99864e-06
9.99731e-06
9.99643e-06
9.99621e-06
9.99664e-06
9.9975e-06
9.9986e-06
9.99974e-06
1.00008e-05
1.00015e-05
1.00019e-05
1.0002e-05
1.00016e-05
1.00007e-05
9.99941e-06
9.99799e-06
9.99666e-06
9.99561e-06
9.99497e-06
9.99473e-06
9.99473e-06
9.99474e-06
9.99471e-06
9.99471e-06
9.99488e-06
9.99535e-06
9.9963e-06
9.99776e-06
9.99967e-06
1.00018e-05
1.00043e-05
1.00069e-05
1.00098e-05
1.00128e-05
1.00159e-05
1.00188e-05
1.00211e-05
1.00223e-05
1.00223e-05
1.00211e-05
1.0019e-05
1.00165e-05
1.00141e-05
1.00122e-05
1.00106e-05
1.00093e-05
1.00078e-05
1.00059e-05
1.00034e-05
1.00002e-05
9.99665e-06
9.99325e-06
9.99033e-06
9.98822e-06
9.98709e-06
9.98696e-06
9.9876e-06
9.98861e-06
9.9897e-06
9.99062e-06
9.99129e-06
9.99163e-06
9.99177e-06
9.99187e-06
9.99204e-06
9.99229e-06
9.99269e-06
9.99328e-06
9.99408e-06
9.99509e-06
9.99639e-06
9.99801e-06
9.99999e-06
1.00022e-05
1.00045e-05
1.00068e-05
1.0009e-05
1.00108e-05
1.00122e-05
1.00132e-05
1.00138e-05
1.00139e-05
1.00136e-05
1.00128e-05
1.00114e-05
1.00094e-05
1.00071e-05
1.00045e-05
1.00022e-05
1.00004e-05
9.99932e-06
9.99933e-06
1.00003e-05
1.0002e-05
1.00039e-05
1.00057e-05
1.0007e-05
1.00072e-05
1.00064e-05
1.00044e-05
1.00016e-05
9.99821e-06
9.99496e-06
9.9923e-06
9.99062e-06
9.98993e-06
9.99034e-06
9.99153e-06
9.99304e-06
9.99442e-06
9.99522e-06
9.99537e-06
9.99504e-06
9.99461e-06
9.9948e-06
9.99618e-06
9.99891e-06
1.0003e-05
1.00074e-05
1.00117e-05
1.00148e-05
1.00164e-05
1.00162e-05
1.00145e-05
1.00119e-05
1.00085e-05
1.00051e-05
1.00018e-05
9.99873e-06
9.99579e-06
9.9936e-06
9.99229e-06
9.99223e-06
9.99355e-06
9.99628e-06
1.00003e-05
1.00049e-05
1.00098e-05
1.00139e-05
1.00168e-05
1.0018e-05
1.00174e-05
1.00155e-05
1.00126e-05
1.00095e-05
1.00065e-05
1.00042e-05
1.00026e-05
1.00014e-05
1.00004e-05
9.99936e-06
9.99809e-06
9.99668e-06
9.99525e-06
9.99413e-06
9.99343e-06
9.99316e-06
9.99325e-06
9.99361e-06
9.99412e-06
9.99456e-06
9.99483e-06
9.99494e-06
9.99481e-06
9.99434e-06
9.9934e-06
9.992e-06
9.99028e-06
9.98843e-06
9.98663e-06
9.9852e-06
9.98435e-06
9.98395e-06
9.98382e-06
9.98371e-06
9.98343e-06
9.98283e-06
9.98202e-06
9.98121e-06
9.98059e-06
9.98051e-06
9.98104e-06
9.98227e-06
9.98426e-06
9.98692e-06
9.99043e-06
9.99463e-06
9.99951e-06
1.00046e-05
1.00096e-05
1.00138e-05
1.00166e-05
1.00178e-05
1.00173e-05
1.00155e-05
1.00129e-05
1.00101e-05
1.00076e-05
1.00055e-05
1.00037e-05
1.00021e-05
9.99999e-06
9.99722e-06
9.99372e-06
9.98987e-06
9.98599e-06
9.98262e-06
9.98014e-06
9.97884e-06
9.97865e-06
9.97934e-06
9.98063e-06
9.98219e-06
9.98381e-06
9.98527e-06
9.98661e-06
9.98793e-06
9.98947e-06
9.9913e-06
9.99364e-06
9.99656e-06
1.00002e-05
1.00043e-05
1.00087e-05
1.00131e-05
1.00172e-05
1.00204e-05
1.00225e-05
1.00234e-05
1.00232e-05
1.00222e-05
1.00206e-05
1.00188e-05
1.0017e-05
1.00148e-05
1.00122e-05
1.0009e-05
1.00049e-05
9.99997e-06
9.99446e-06
9.98915e-06
9.98449e-06
9.98117e-06
9.97969e-06
9.98028e-06
9.98269e-06
9.98623e-06
9.99014e-06
9.99345e-06
9.99558e-06
9.99618e-06
9.99544e-06
9.99385e-06
9.992e-06
9.99049e-06
9.98968e-06
9.98968e-06
9.99026e-06
9.991e-06
9.99158e-06
9.99189e-06
9.99206e-06
9.99235e-06
9.99321e-06
9.99497e-06
9.9977e-06
1.0001e-05
1.00044e-05
1.00074e-05
1.00094e-05
1.00102e-05
1.001e-05
1.0009e-05
1.00075e-05
1.00059e-05
1.00043e-05
1.00029e-05
1.00017e-05
1.00007e-05
9.99967e-06
9.99861e-06
9.99733e-06
9.99574e-06
9.99391e-06
9.99202e-06
9.99024e-06
9.98879e-06
9.98786e-06
9.98757e-06
9.98782e-06
9.9885e-06
9.98952e-06
9.99073e-06
9.99205e-06
9.99356e-06
9.99536e-06
9.99756e-06
1.00001e-05
1.0003e-05
1.00058e-05
1.00083e-05
1.00101e-05
1.0011e-05
1.00107e-05
1.00094e-05
1.00074e-05
1.00049e-05
1.00026e-05
1.00009e-05
1e-05
9.99992e-06
1.00006e-05
1.00018e-05
1.00032e-05
1.00044e-05
1.00052e-05
1.00054e-05
1.0005e-05
1.0004e-05
1.00028e-05
1.00015e-05
1.00005e-05
9.99991e-06
9.9998e-06
1.00002e-05
1.0001e-05
1.00021e-05
1.00031e-05
1.0004e-05
1.00046e-05
1.00045e-05
1.00037e-05
1.00024e-05
1.00006e-05
9.99823e-06
9.99585e-06
9.99333e-06
9.99115e-06
9.98901e-06
9.98714e-06
9.98531e-06
9.98344e-06
9.98143e-06
9.97952e-06
9.97774e-06
9.97624e-06
9.97519e-06
9.97474e-06
9.97493e-06
9.97573e-06
9.97712e-06
9.97902e-06
9.98148e-06
9.98427e-06
9.98739e-06
9.9905e-06
9.99353e-06
9.99616e-06
9.9984e-06
1.00001e-05
1.00012e-05
1.00018e-05
1.0002e-05
1.00018e-05
1.00016e-05
1.00013e-05
1.00009e-05
1.00006e-05
1.00002e-05
9.9997e-06
9.999e-06
9.99816e-06
9.99722e-06
9.99627e-06
9.99558e-06
9.99537e-06
9.99584e-06
9.99701e-06
9.99886e-06
1.00012e-05
1.00037e-05
1.00061e-05
1.00082e-05
1.00098e-05
1.00107e-05
1.00111e-05
1.0011e-05
1.00106e-05
1.00097e-05
1.00087e-05
1.00071e-05
1.00053e-05
1.0003e-05
1.00006e-05
9.99813e-06
9.99573e-06
9.99365e-06
9.99213e-06
9.99117e-06
9.99074e-06
9.9908e-06
9.99127e-06
9.99203e-06
9.9929e-06
9.99385e-06
9.99483e-06
9.99578e-06
9.99657e-06
9.99724e-06
9.99787e-06
9.99858e-06
9.99939e-06
1.00004e-05
1.00018e-05
1.00034e-05
1.00051e-05
1.00068e-05
1.00084e-05
1.00095e-05
1.00101e-05
1.00099e-05
1.00091e-05
1.00079e-05
1.00064e-05
1.0005e-05
1.00042e-05
1.0004e-05
1.00044e-05
1.00054e-05
1.00065e-05
1.00075e-05
1.0008e-05
1.00079e-05
1.00073e-05
1.00064e-05
1.00052e-05
1.0004e-05
1.00029e-05
1.0002e-05
1.00012e-05
1.00004e-05
9.99947e-06
9.99842e-06
9.99719e-06
9.99591e-06
9.9949e-06
9.99445e-06
9.99479e-06
9.99607e-06
9.99814e-06
1.00007e-05
1.0003e-05
1.00045e-05
1.00048e-05
1.00039e-05
1.00019e-05
9.99919e-06
9.99657e-06
9.9944e-06
9.99292e-06
9.99212e-06
9.99182e-06
9.99169e-06
9.99142e-06
9.99087e-06
9.99012e-06
9.98928e-06
9.98854e-06
9.98809e-06
9.98804e-06
9.9884e-06
9.98903e-06
9.98993e-06
9.99115e-06
9.99286e-06
9.99508e-06
9.99795e-06
1.00014e-05
1.00052e-05
1.0009e-05
1.00123e-05
1.00144e-05
1.00152e-05
1.00143e-05
1.00116e-05
1.00077e-05
1.00028e-05
9.99762e-06
9.99289e-06
9.98937e-06
9.98744e-06
9.98741e-06
9.98934e-06
9.99294e-06
9.99729e-06
1.00018e-05
1.00053e-05
1.00072e-05
1.00071e-05
1.00049e-05
1.00015e-05
9.99724e-06
9.99323e-06
9.98977e-06
9.98777e-06
9.98717e-06
9.98786e-06
9.98944e-06
9.99136e-06
9.99331e-06
9.99492e-06
9.99611e-06
9.99685e-06
9.99731e-06
9.99765e-06
9.99802e-06
9.99857e-06
9.99933e-06
1.00002e-05
1.00012e-05
1.00021e-05
1.00027e-05
1.0003e-05
1.00028e-05
1.00023e-05
1.00014e-05
1.00003e-05
9.99902e-06
9.99791e-06
9.99691e-06
9.99608e-06
9.99517e-06
9.99418e-06
9.9928e-06
9.99098e-06
9.98851e-06
9.98598e-06
9.98354e-06
9.98197e-06
9.98164e-06
9.98308e-06
9.98655e-06
9.99162e-06
9.99832e-06
1.00053e-05
1.00125e-05
1.00184e-05
1.00233e-05
1.00262e-05
1.00275e-05
1.00272e-05
1.00255e-05
1.00231e-05
1.002e-05
1.00169e-05
1.00136e-05
1.00108e-05
1.00083e-05
1.00064e-05
1.00049e-05
1.00039e-05
1.00032e-05
1.00028e-05
1.00024e-05
1.00023e-05
1.00022e-05
1.00023e-05
1.00026e-05
1.00029e-05
1.00031e-05
1.0003e-05
1.00022e-05
1.00007e-05
9.99836e-06
9.99537e-06
9.99191e-06
9.98858e-06
9.98562e-06
9.98363e-06
9.98283e-06
9.98358e-06
9.98589e-06
9.9894e-06
9.99394e-06
9.9986e-06
1.0003e-05
1.00062e-05
1.0008e-05
1.00081e-05
1.00066e-05
1.00041e-05
1.00009e-05
9.99763e-06
9.99487e-06
9.99302e-06
9.99213e-06
9.99205e-06
9.99258e-06
9.99343e-06
9.99437e-06
9.99516e-06
9.99576e-06
9.99621e-06
9.9966e-06
9.99699e-06
9.99753e-06
9.9983e-06
9.99932e-06
1.00004e-05
1.00014e-05
1.00021e-05
1.00023e-05
1.00018e-05
1.00007e-05
9.99917e-06
9.99731e-06
9.99543e-06
9.99386e-06
9.99291e-06
9.99271e-06
9.99327e-06
9.99455e-06
9.99632e-06
9.99839e-06
1.00004e-05
1.00021e-05
1.00034e-05
1.00043e-05
1.00046e-05
1.00046e-05
1.00042e-05
1.00037e-05
1.00029e-05
1.00018e-05
1.00004e-05
9.99861e-06
9.9965e-06
9.99421e-06
9.9921e-06
9.99045e-06
9.98953e-06
9.98957e-06
9.99068e-06
9.99281e-06
9.99559e-06
9.99876e-06
1.00018e-05
1.00045e-05
1.00063e-05
1.00072e-05
1.00071e-05
1.00063e-05
1.00049e-05
1.00033e-05
1.00017e-05
1.00004e-05
9.9995e-06
9.99902e-06
9.99898e-06
9.99922e-06
9.99949e-06
9.9997e-06
9.99976e-06
9.99955e-06
9.99888e-06
9.99775e-06
9.99628e-06
9.99459e-06
9.99293e-06
9.99161e-06
9.99103e-06
9.99129e-06
9.99236e-06
9.99414e-06
9.9963e-06
9.99856e-06
1.00005e-05
1.00021e-05
1.00031e-05
1.00037e-05
1.00038e-05
1.00036e-05
1.00032e-05
1.00028e-05
1.00025e-05
1.00023e-05
1.00024e-05
1.00027e-05
1.00033e-05
1.0004e-05
1.00048e-05
1.00055e-05
1.00061e-05
1.00063e-05
1.00061e-05
1.00056e-05
1.00045e-05
1.00033e-05
1.0002e-05
1.00009e-05
9.99999e-06
9.99963e-06
9.99983e-06
1.00005e-05
1.00015e-05
1.00026e-05
1.00035e-05
1.00042e-05
1.00044e-05
1.0004e-05
1.00032e-05
1.0002e-05
1.00006e-05
9.99932e-06
9.99816e-06
9.99746e-06
9.99712e-06
9.99722e-06
9.99761e-06
9.99814e-06
9.99856e-06
9.99868e-06
9.99843e-06
9.99783e-06
9.99672e-06
9.99539e-06
9.99388e-06
9.99256e-06
9.99142e-06
9.99077e-06
9.9906e-06
9.99107e-06
9.99214e-06
9.99366e-06
9.99548e-06
9.99731e-06
9.99905e-06
1.00004e-05
1.00013e-05
1.00018e-05
1.00019e-05
1.00015e-05
1.00008e-05
1e-05
9.99912e-06
9.99837e-06
9.99775e-06
9.99747e-06
9.99745e-06
9.99775e-06
9.9983e-06
9.99904e-06
9.99988e-06
1.00007e-05
1.00014e-05
1.0002e-05
1.00022e-05
1.00022e-05
1.00019e-05
1.00016e-05
1.00012e-05
1.00009e-05
1.0001e-05
1.00012e-05
1.00017e-05
1.00023e-05
1.00028e-05
1.00033e-05
1.00034e-05
1.00032e-05
1.00027e-05
1.00021e-05
1.00014e-05
1.00007e-05
1.00001e-05
9.99961e-06
9.99922e-06
9.99897e-06
9.99879e-06
9.99865e-06
9.99851e-06
9.99848e-06
9.99851e-06
9.99865e-06
9.99884e-06
9.99907e-06
9.99933e-06
9.99962e-06
9.9999e-06
1.00001e-05
1.00001e-05
1e-05
9.99977e-06
9.99924e-06
9.99849e-06
9.99768e-06
9.99694e-06
9.99643e-06
9.99631e-06
9.99671e-06
9.99762e-06
9.99885e-06
1.00003e-05
1.00017e-05
1.00029e-05
1.00037e-05
1.00039e-05
1.00036e-05
1.00029e-05
1.00017e-05
1.00002e-05
9.99878e-06
9.9975e-06
9.99653e-06
9.99602e-06
9.9961e-06
9.99678e-06
9.99793e-06
9.99946e-06
1.00012e-05
1.00028e-05
1.00042e-05
1.0005e-05
1.00053e-05
1.00047e-05
1.00034e-05
1.00014e-05
9.99901e-06
9.99643e-06
9.99404e-06
9.99218e-06
9.99121e-06
9.99129e-06
9.99236e-06
9.99434e-06
9.9969e-06
9.99973e-06
1.00023e-05
1.00043e-05
1.00053e-05
1.00054e-05
1.00045e-05
1.00027e-05
1.00007e-05
9.99859e-06
9.99675e-06
9.99545e-06
9.99496e-06
9.99531e-06
9.99636e-06
9.99795e-06
9.99979e-06
1.00016e-05
1.00031e-05
1.00041e-05
1.00045e-05
1.00044e-05
1.00038e-05
1.00027e-05
1.00015e-05
1.00001e-05
9.99879e-06
9.99755e-06
9.99658e-06
9.99596e-06
9.99573e-06
9.99596e-06
9.99674e-06
9.99806e-06
9.99979e-06
1.00018e-05
1.0004e-05
1.00061e-05
1.00078e-05
1.00091e-05
1.00096e-05
1.00095e-05
1.00088e-05
1.00074e-05
1.00058e-05
1.00039e-05
1.00019e-05
1.00001e-05
9.99853e-06
9.9975e-06
9.99684e-06
9.99661e-06
9.99676e-06
9.99728e-06
9.99815e-06
9.99937e-06
1.0001e-05
1.00029e-05
1.00047e-05
1.00054e-05
1.00041e-05
1.00004e-05
9.99411e-06
9.98716e-06
9.98181e-06
9.98135e-06
9.98805e-06
1.00035e-05
1.00275e-05
1.00551e-05
1.00904e-05
1.01207e-05
1.01469e-05
1.0161e-05
1.01597e-05
1.01352e-05
1.00887e-05
1.00285e-05
9.95428e-06
9.88629e-06
9.85932e-06
9.87799e-06
9.81847e-06
9.42057e-06
8.6462e-06
8.94315e-06
1.21777e-05
1.61468e-05
1.74215e-05
1.4264e-05
2.09224e-05
4.14803e-05
6.32246e-05
8.27458e-05
0.000100948
0.000116194
0.000130522
0.000142746
0.000154724
0.000165227
0.00017583
0.00018119
0.000189495
0.00019254
0.000191899
0.000214607
0.000193396
0.000201921
0.000196633
0.000193493
0.000224415
0.000204428
0.000227444
0.000233224
0.000227741
0.000229797
0.000209592
0.000226675
0.000220704
0.000217156
0.000233704
0.000216669
0.000217813
0.000210642
0.000204021
0.000198461
0.000207075
0.000224795
0.000214758
0.000207768
0.000223877
0.000216431
0.000213619
0.000224485
0.000240987
0.000217844
0.000192607
0.000208619
0.000202663
0.00020498
0.000204763
0.000204119
0.000210778
0.00019007
0.000195381
0.000197411
0.000202405
0.000214913
0.000212631
0.000201761
0.000197842
0.000196885
0.000191868
0.000197955
0.000201024
0.000198105
0.000197665
0.000195299
0.000190633
0.00017842
0.000187213
0.000197421
0.000182902
0.000172673
0.000164549
0.000170441
0.000197349
0.000191555
0.000198363
0.000194139
0.000200728
0.000202394
0.000209831
0.000216371
0.000192523
0.000222229
0.000178163
0.000182315
0.000183348
0.000192964
0.000185614
0.000190363
0.000185302
0.000189436
0.000190105
0.000196703
0.000201332
0.000199627
0.000232236
0.000220972
0.000216884
0.00021565
0.000218162
0.000216376
0.000207052
0.000186447
0.000185978
0.000188802
0.000189566
0.000186023
0.000195766
0.000197701
0.000195834
0.000200414
0.000209762
0.000210724
0.000232265
0.000203798
0.000217557
0.000214303
0.00020464
0.000222488
0.000215642
0.000214787
0.000199149
0.000197898
0.000216555
0.00021535
0.000207295
0.000214894
0.000204495
0.000203167
0.000169875
0.000162261
0.00015451
0.000146593
0.000129123
0.000120885
0.000117053
0.000107992
9.93278e-05
8.62884e-05
6.85639e-05
4.73012e-05
2.61909e-05
1.90391e-05
2.43528e-05
4.15249e-05
5.5251e-05
6.31439e-05
6.71687e-05
6.94152e-05
7.12752e-05
7.3005e-05
7.3956e-05
7.39239e-05
7.33317e-05
7.21665e-05
7.07013e-05
6.89547e-05
6.76081e-05
6.67555e-05
6.65444e-05
6.66576e-05
6.69037e-05
6.72291e-05
6.75768e-05
6.79649e-05
6.833e-05
6.87069e-05
6.90435e-05
6.93516e-05
6.9552e-05
6.96425e-05
6.96221e-05
6.95669e-05
6.94855e-05
6.93528e-05
6.91769e-05
6.90113e-05
6.88683e-05
6.8728e-05
6.85982e-05
6.85097e-05
6.8461e-05
6.84333e-05
6.84232e-05
6.84475e-05
6.84844e-05
6.85307e-05
6.85693e-05
6.86342e-05
6.87001e-05
6.87251e-05
6.87499e-05
6.87602e-05
6.87795e-05
6.8792e-05
6.87879e-05
6.8798e-05
6.88255e-05
6.87515e-05
6.87955e-05
6.88486e-05
6.88194e-05
6.88869e-05
6.88405e-05
6.88241e-05
6.87846e-05
6.87356e-05
6.87059e-05
6.86814e-05
6.8695e-05
6.87205e-05
6.86828e-05
6.86834e-05
6.86656e-05
6.86588e-05
6.85984e-05
6.85844e-05
6.85551e-05
6.8542e-05
6.84991e-05
6.85522e-05
6.85427e-05
6.85353e-05
6.859e-05
6.85844e-05
6.86047e-05
6.86177e-05
6.85819e-05
6.86225e-05
6.85938e-05
6.86308e-05
6.86413e-05
6.86887e-05
6.8729e-05
6.86853e-05
6.87205e-05
6.86826e-05
6.86747e-05
6.86518e-05
6.86468e-05
6.858e-05
6.85009e-05
6.84239e-05
6.83833e-05
6.83801e-05
6.84774e-05
6.85999e-05
6.87371e-05
6.89088e-05
6.90673e-05
6.91455e-05
6.91583e-05
6.91034e-05
6.89535e-05
6.87145e-05
6.84516e-05
6.82211e-05
6.80759e-05
6.80525e-05
6.82115e-05
6.85544e-05
6.89915e-05
6.94104e-05
6.97536e-05
6.9908e-05
6.97369e-05
6.92361e-05
6.85117e-05
6.764e-05
6.68509e-05
6.65063e-05
6.69216e-05
6.80962e-05
6.98188e-05
7.19075e-05
7.39149e-05
7.47935e-05
7.32622e-05
6.83994e-05
5.93122e-05
4.47199e-05
2.81684e-05
2.40462e-05
2.48992e-05
2.68111e-05
2.91534e-05
3.02489e-05
2.89387e-05
2.66128e-05
2.51218e-05
2.37277e-05
2.21992e-05
2.11549e-05
2.08656e-05
2.09375e-05
2.12053e-05
2.17802e-05
2.27259e-05
2.38997e-05
2.50457e-05
2.61534e-05
2.73026e-05
2.85732e-05
2.98625e-05
3.11119e-05
3.22357e-05
3.32784e-05
3.42185e-05
3.50954e-05
3.59293e-05
3.67942e-05
3.76746e-05
3.86071e-05
3.95778e-05
4.06003e-05
4.15885e-05
4.25343e-05
4.34314e-05
4.43544e-05
4.52767e-05
4.62267e-05
4.72068e-05
4.82663e-05
4.93518e-05
5.04525e-05
5.15116e-05
5.2557e-05
5.35456e-05
5.45075e-05
5.5449e-05
5.64397e-05
5.74458e-05
5.84748e-05
5.94891e-05
6.05122e-05
6.14873e-05
6.24214e-05
6.33086e-05
6.42123e-05
6.51014e-05
6.59833e-05
6.68359e-05
6.76765e-05
6.84146e-05
6.903e-05
6.99731e-05
7.03854e-05
7.05318e-05
7.0876e-05
7.09552e-05
7.10131e-05
7.11231e-05
7.05975e-05
7.035e-05
7.01282e-05
6.98346e-05
6.95732e-05
6.92297e-05
6.86875e-05
6.8127e-05
6.74804e-05
6.66746e-05
6.57642e-05
6.46624e-05
6.34889e-05
6.21267e-05
6.07552e-05
5.92432e-05
5.77618e-05
5.61266e-05
5.45012e-05
5.27496e-05
5.10359e-05
4.91576e-05
4.73296e-05
4.53775e-05
4.35153e-05
4.15516e-05
3.97306e-05
3.79191e-05
3.63173e-05
3.47603e-05
3.34153e-05
3.21401e-05
3.1064e-05
2.99897e-05
2.90262e-05
2.80725e-05
2.72513e-05
2.64089e-05
2.56046e-05
2.49557e-05
2.41654e-05
2.3449e-05
2.26593e-05
2.19496e-05
2.10807e-05
2.02998e-05
1.9481e-05
1.86821e-05
1.79086e-05
1.71555e-05
1.64155e-05
1.55986e-05
1.49098e-05
1.41896e-05
1.34664e-05
1.27909e-05
1.21293e-05
1.15121e-05
1.09616e-05
1.04237e-05
9.96495e-06
9.57648e-06
9.25581e-06
9.00383e-06
8.82124e-06
8.70354e-06
8.64986e-06
8.64004e-06
8.67642e-06
8.75057e-06
8.85743e-06
8.9808e-06
9.12234e-06
9.27224e-06
9.41712e-06
9.56049e-06
9.69617e-06
9.81086e-06
9.91534e-06
1.00048e-05
1.00761e-05
1.01345e-05
1.01741e-05
1.0202e-05
1.0217e-05
1.02197e-05
1.02134e-05
1.02e-05
1.01818e-05
1.01576e-05
1.01325e-05
1.01058e-05
1.00804e-05
1.00562e-05
1.00351e-05
1.00177e-05
1.00034e-05
9.99166e-06
9.9833e-06
9.97776e-06
9.97429e-06
9.9726e-06
9.97271e-06
9.97422e-06
9.97687e-06
9.98058e-06
9.98491e-06
9.98953e-06
9.99402e-06
9.9981e-06
1.00012e-05
1.00031e-05
1.00036e-05
1.00029e-05
1.00011e-05
9.99871e-06
9.99615e-06
9.99392e-06
9.9925e-06
9.99203e-06
9.99238e-06
9.99337e-06
9.9948e-06
9.99652e-06
9.99829e-06
1.00001e-05
1.00018e-05
1.00035e-05
1.00047e-05
1.00054e-05
1.00054e-05
1.00045e-05
1.00027e-05
1.00001e-05
9.99706e-06
9.99404e-06
9.9915e-06
9.98988e-06
9.9896e-06
9.99081e-06
9.99325e-06
9.99656e-06
1.00001e-05
1.00033e-05
1.00055e-05
1.00067e-05
1.00068e-05
1.00062e-05
1.00052e-05
1.00045e-05
1.00043e-05
1.00048e-05
1.00056e-05
1.00066e-05
1.00072e-05
1.00074e-05
1.00068e-05
1.00055e-05
1.00037e-05
1.00015e-05
9.99919e-06
9.99688e-06
9.99488e-06
9.99328e-06
9.9922e-06
9.99176e-06
9.99212e-06
9.99337e-06
9.99534e-06
9.99793e-06
1.00008e-05
1.00038e-05
1.00063e-05
1.0008e-05
1.00086e-05
1.0008e-05
1.00062e-05
1.00035e-05
1.00003e-05
9.9971e-06
9.99434e-06
9.99232e-06
9.99136e-06
9.9915e-06
9.99261e-06
9.99451e-06
9.99684e-06
9.99935e-06
1.00016e-05
1.00035e-05
1.00047e-05
1.00052e-05
1.00051e-05
1.00046e-05
1.0004e-05
1.00036e-05
1.00032e-05
1.00029e-05
1.00027e-05
1.00024e-05
1.0002e-05
1.00016e-05
1.0001e-05
1.00003e-05
9.9994e-06
9.9984e-06
9.99726e-06
9.99625e-06
9.99547e-06
9.99524e-06
9.99572e-06
9.99682e-06
9.99834e-06
9.99985e-06
1.0001e-05
1.00014e-05
1.00008e-05
9.99916e-06
9.9966e-06
9.99374e-06
9.99072e-06
9.98835e-06
9.98674e-06
9.98628e-06
9.98684e-06
9.98818e-06
9.99006e-06
9.99215e-06
9.99437e-06
9.99637e-06
9.99813e-06
9.99949e-06
1.00005e-05
1.0001e-05
1.00012e-05
1.00011e-05
1.00006e-05
9.99987e-06
9.99894e-06
9.99795e-06
9.99708e-06
9.99642e-06
9.99596e-06
9.99566e-06
9.99552e-06
9.99552e-06
9.9957e-06
9.99614e-06
9.99697e-06
9.99814e-06
9.99945e-06
1.00006e-05
1.00012e-05
1.00011e-05
1.00003e-05
9.99913e-06
9.99888e-06
9.99856e-06
9.9984e-06
9.99824e-06
9.99813e-06
9.99803e-06
9.99787e-06
9.99766e-06
9.99746e-06
9.99757e-06
9.99811e-06
9.99868e-06
9.99915e-06
9.9995e-06
9.99976e-06
9.99989e-06
9.99992e-06
9.99988e-06
9.99983e-06
9.99973e-06
9.99962e-06
9.9995e-06
9.99944e-06
9.99943e-06
9.99955e-06
9.99983e-06
1.00003e-05
1.00009e-05
1.00017e-05
1.00024e-05
1.0003e-05
1.00033e-05
1.00032e-05
1.00026e-05
1.00018e-05
1.00006e-05
9.99934e-06
9.99807e-06
9.99696e-06
9.99603e-06
9.99545e-06
9.99529e-06
9.99571e-06
9.99664e-06
9.99789e-06
9.99927e-06
1.00005e-05
1.00015e-05
1.0002e-05
1.0002e-05
1.00016e-05
1.00009e-05
1.00002e-05
9.9994e-06
9.9988e-06
9.99835e-06
9.9981e-06
9.99798e-06
9.99802e-06
9.9981e-06
9.99819e-06
9.99819e-06
9.99811e-06
9.99794e-06
9.99782e-06
9.99784e-06
9.99807e-06
9.99847e-06
9.99899e-06
9.99959e-06
1.00002e-05
1.00006e-05
1.00009e-05
1.00008e-05
1.00006e-05
1.00003e-05
9.99998e-06
9.99962e-06
9.99917e-06
9.99874e-06
9.99832e-06
9.99814e-06
9.99816e-06
9.99841e-06
9.9987e-06
9.99909e-06
9.99945e-06
9.99976e-06
9.99993e-06
1.00001e-05
1.00001e-05
1.00001e-05
9.99995e-06
9.99976e-06
9.99957e-06
9.99934e-06
9.99908e-06
9.99888e-06
9.99871e-06
9.99865e-06
9.99867e-06
9.99887e-06
9.99915e-06
9.99949e-06
9.99979e-06
1.00001e-05
1.00004e-05
1.00006e-05
1.00006e-05
1.00005e-05
1.00005e-05
1.00004e-05
1.00003e-05
1.00003e-05
1.00006e-05
1.00009e-05
1.00012e-05
1.00014e-05
1.00014e-05
1.00013e-05
1.0001e-05
1.00006e-05
1.00002e-05
9.99978e-06
9.99933e-06
9.99899e-06
9.99876e-06
9.99869e-06
9.99876e-06
9.99915e-06
9.99982e-06
1.00008e-05
1.00019e-05
1.0003e-05
1.00039e-05
1.00043e-05
1.00037e-05
1.00016e-05
9.99785e-06
9.99196e-06
9.98515e-06
9.97762e-06
9.9723e-06
9.97137e-06
9.97697e-06
9.9926e-06
1.00163e-05
1.00531e-05
1.00926e-05
1.0142e-05
1.01833e-05
1.02195e-05
1.02362e-05
1.0236e-05
1.02115e-05
1.01531e-05
1.00718e-05
9.94378e-06
9.80173e-06
9.61078e-06
9.43105e-06
9.20881e-06
9.0264e-06
8.82765e-06
8.68612e-06
8.5422e-06
8.47395e-06
8.48431e-06
8.56542e-06
8.75562e-06
9.02161e-06
9.50057e-06
1.00234e-05
1.08172e-05
1.15553e-05
1.23683e-05
1.33071e-05
1.43889e-05
1.54864e-05
1.66465e-05
1.78544e-05
1.91439e-05
2.04867e-05
2.17603e-05
2.31366e-05
2.45957e-05
2.60872e-05
2.75294e-05
2.91046e-05
3.1055e-05
3.27833e-05
3.44789e-05
3.60626e-05
3.78567e-05
3.96371e-05
4.12963e-05
4.30346e-05
4.47643e-05
4.64957e-05
4.80868e-05
4.974e-05
5.14345e-05
5.30322e-05
5.47388e-05
5.62922e-05
5.80205e-05
5.97758e-05
6.14173e-05
6.31068e-05
6.48155e-05
6.63605e-05
6.79401e-05
6.92443e-05
7.06301e-05
7.19187e-05
7.30114e-05
7.41148e-05
7.52518e-05
7.62366e-05
7.73144e-05
7.81741e-05
7.91528e-05
8.00742e-05
8.08136e-05
8.15321e-05
8.2289e-05
8.29634e-05
8.34749e-05
8.37236e-05
8.47109e-05
8.52805e-05
8.57353e-05
8.61873e-05
8.6687e-05
8.71373e-05
8.74016e-05
8.74207e-05
8.84932e-05
8.90679e-05
8.9686e-05
9.05172e-05
9.09138e-05
9.15623e-05
9.19646e-05
9.17024e-05
9.30818e-05
9.34644e-05
9.33786e-05
9.34663e-05
9.4279e-05
9.44515e-05
9.44236e-05
9.36504e-05
9.46691e-05
9.45816e-05
9.43188e-05
9.39311e-05
9.34685e-05
9.28403e-05
9.20789e-05
9.12151e-05
9.0359e-05
8.94887e-05
8.86419e-05
8.78614e-05
8.71666e-05
8.64842e-05
8.5788e-05
8.50207e-05
8.42691e-05
8.34135e-05
8.24649e-05
8.13962e-05
8.03004e-05
7.91383e-05
7.78915e-05
7.65832e-05
7.52059e-05
7.38368e-05
7.25633e-05
7.1482e-05
7.05096e-05
6.94447e-05
6.82859e-05
6.72785e-05
6.66245e-05
6.61482e-05
6.52786e-05
6.3858e-05
6.23276e-05
6.12359e-05
6.04647e-05
5.98247e-05
5.92872e-05
5.8941e-05
5.85628e-05
5.82725e-05
5.7883e-05
5.74375e-05
5.7002e-05
5.68872e-05
5.6831e-05
5.69086e-05
5.71484e-05
5.79931e-05
5.92601e-05
6.06249e-05
6.20829e-05
6.39386e-05
6.59982e-05
6.82722e-05
7.04079e-05
7.26872e-05
7.47525e-05
7.70491e-05
7.89146e-05
8.15905e-05
8.39642e-05
8.6513e-05
8.88789e-05
9.22934e-05
9.58875e-05
9.9968e-05
0.000102462
0.000106595
0.000110802
0.000113964
0.000114908
0.000113739
0.000109212
0.00010194
9.43402e-05
8.75115e-05
8.7825e-05
0.00010713
0.000172766
0.000246601
0.000295465
0.000311729
0.000346065
0.000347652
0.000346174
0.00035985
0.000352343
0.000337975
0.000359054
0.000341663
0.000336407
0.000336821
0.000315721
0.000349854
0.000335818
0.000333908
0.000329519
0.00036588
0.000358138
0.000329044
0.000337796
0.000334104
0.000334386
0.000336053
0.000331367
0.000340898
0.000342869
0.00034559
0.000352482
0.000338895
0.000371324
0.000348693
0.000369787
0.000350962
0.000346058
0.000375308
0.000347135
0.00032741
0.000322374
0.000324814
0.000356685
0.000350905
0.000359373
0.000349998
0.00035413
0.000344304
0.000330764
0.0003372
0.000333421
0.00034993