/*--------------------------------*- C++ -*----------------------------------*\
| =========                 |                                                 |
| \\      /  F ield         | foam-extend: Open Source CFD                    |
|  \\    /   O peration     | Version:     4.0                                |
|   \\  /    A nd           | Web:         http://www.foam-extend.org         |
|    \\/     M anipulation  |                                                 |
\*---------------------------------------------------------------------------*/
FoamFile
{
    version     2.0;
    format      ascii;
    class       volScalarField;
    location    "0.002";
    object      h;
}
// * * * * * * * * * * * * * * * * * * * * * * * * * * * * * * * * * * * * * //

dimensions      [0 1 0 0 0 0 0];

internalField   nonuniform List<scalar> 
176451
(
1.00009e-05
1.00007e-05
9.99938e-06
1.00004e-05
9.99997e-06
9.99874e-06
1.00003e-05
1.00006e-05
1.00006e-05
9.99856e-06
9.999e-06
1.00031e-05
1.00018e-05
1.00019e-05
1.00017e-05
9.99988e-06
1.00015e-05
9.9983e-06
1.00013e-05
1.00005e-05
1.00015e-05
1.00007e-05
1.00012e-05
1.00007e-05
1.00014e-05
9.99994e-06
1.00005e-05
1.00006e-05
9.99879e-06
9.99963e-06
1.00002e-05
1.00019e-05
9.99925e-06
9.99865e-06
1.00002e-05
9.99923e-06
1.00004e-05
1.00018e-05
9.99954e-06
9.99888e-06
1.00015e-05
1.00003e-05
1.00001e-05
9.99832e-06
9.99993e-06
9.99924e-06
1.00003e-05
9.99974e-06
1.00009e-05
1.00007e-05
1.00023e-05
9.99985e-06
9.99865e-06
1.00012e-05
9.99937e-06
9.99873e-06
1.00002e-05
9.99911e-06
9.99771e-06
9.99838e-06
9.9996e-06
9.9979e-06
9.99765e-06
9.9977e-06
9.99915e-06
1.00029e-05
9.99771e-06
1.00004e-05
1.00024e-05
1e-05
9.99976e-06
9.99922e-06
1e-05
1.00008e-05
1.00008e-05
1.00005e-05
9.99982e-06
1.00023e-05
9.99971e-06
9.99784e-06
1.00003e-05
1.00005e-05
9.99817e-06
9.99849e-06
9.9996e-06
1.00016e-05
9.99996e-06
9.99964e-06
1.00003e-05
1.00017e-05
1.00001e-05
9.99958e-06
1.00002e-05
1.0001e-05
9.99813e-06
9.99869e-06
9.99885e-06
1.00012e-05
1.00024e-05
9.99971e-06
1e-05
9.99921e-06
1.00022e-05
1.00001e-05
9.99918e-06
9.99862e-06
1.00001e-05
9.99985e-06
9.99918e-06
1.0002e-05
1.00044e-05
1.00005e-05
1.00013e-05
9.99992e-06
1.00004e-05
1.00035e-05
9.99842e-06
9.99793e-06
1.00014e-05
1.00022e-05
9.99884e-06
1.00008e-05
9.99835e-06
9.99968e-06
1.00011e-05
9.99917e-06
9.99825e-06
1.00008e-05
1.00002e-05
1.00005e-05
1.00008e-05
1.00007e-05
9.99951e-06
1.00022e-05
1.00003e-05
1.00015e-05
1.00006e-05
9.99925e-06
1.00023e-05
1e-05
9.99893e-06
9.99987e-06
1.00018e-05
1.00009e-05
1.00006e-05
1.00007e-05
9.99983e-06
9.99835e-06
1.00016e-05
9.99866e-06
1.00024e-05
9.99951e-06
9.99794e-06
9.99922e-06
9.99801e-06
1.00009e-05
1.00002e-05
1.00005e-05
1.00022e-05
1e-05
1.00009e-05
1.00015e-05
9.99963e-06
1.00006e-05
9.99878e-06
1.00012e-05
1.00011e-05
1.00003e-05
9.99819e-06
1.00014e-05
9.99825e-06
1.00001e-05
1.00014e-05
9.99995e-06
9.99985e-06
9.99966e-06
1.00004e-05
9.99859e-06
1.0001e-05
9.99832e-06
1.00013e-05
9.99969e-06
9.99941e-06
9.99897e-06
9.9977e-06
1.00002e-05
1.00021e-05
1.00007e-05
1.00016e-05
9.99999e-06
1.00015e-05
1.00015e-05
1.00015e-05
1.00015e-05
1.00014e-05
1.00014e-05
1.00014e-05
1.00014e-05
1.00014e-05
1.00014e-05
1.00015e-05
1.00015e-05
1.00015e-05
1.00015e-05
1.00015e-05
1.00015e-05
1.00015e-05
1.00014e-05
1.00014e-05
1.00014e-05
1.00014e-05
1.00014e-05
1.00014e-05
1.00015e-05
1.00014e-05
1.00014e-05
1.00014e-05
1.00014e-05
1.00014e-05
1.00014e-05
1.00014e-05
1.00014e-05
1.00013e-05
1.00013e-05
1.00013e-05
1.00013e-05
1.00013e-05
1.00014e-05
1.00014e-05
1.00014e-05
1.00014e-05
1.00013e-05
1.00013e-05
1.00013e-05
1.00013e-05
1.00013e-05
1.00014e-05
1.00014e-05
1.00015e-05
1.00015e-05
1.00015e-05
1.00015e-05
1.00014e-05
1.00013e-05
1.00013e-05
1.00013e-05
1.00013e-05
1.00014e-05
1.00013e-05
1.00013e-05
1.00014e-05
1.00013e-05
1.00013e-05
1.00013e-05
1.00013e-05
1.00013e-05
1.00014e-05
1.00013e-05
1.00013e-05
1.00013e-05
1.00013e-05
1.00012e-05
1.00013e-05
1.00013e-05
1.00013e-05
1.00013e-05
1.00013e-05
1.00012e-05
1.00012e-05
1.00011e-05
1.00011e-05
1.00012e-05
1.00012e-05
1.00012e-05
1.00013e-05
1.00013e-05
1.00013e-05
1.00013e-05
1.00013e-05
1.00013e-05
1.00013e-05
1.00012e-05
1.00012e-05
1.00012e-05
1.00011e-05
1.00011e-05
1.00012e-05
1.00012e-05
1.00012e-05
1.00012e-05
1.00012e-05
1.00012e-05
1.00011e-05
1.00011e-05
1.00012e-05
1.00012e-05
1.00012e-05
1.00011e-05
1.00011e-05
1.00011e-05
1.00011e-05
1.00011e-05
1.00011e-05
1.00012e-05
1.00012e-05
1.00011e-05
1.00012e-05
1.00012e-05
1.00011e-05
1.00011e-05
1.00011e-05
1.00011e-05
1.0001e-05
1.0001e-05
1.00011e-05
1.00011e-05
1.0001e-05
1.0001e-05
1.00011e-05
1.00011e-05
1.00011e-05
1.0001e-05
1.00011e-05
1.00011e-05
1.0001e-05
1.0001e-05
1.0001e-05
1.00011e-05
1.00011e-05
1.0001e-05
1.00011e-05
1.00011e-05
1.00011e-05
1.0001e-05
1.00011e-05
1.0001e-05
1.0001e-05
1.00011e-05
1.0001e-05
1.0001e-05
1.0001e-05
1.00009e-05
1.00009e-05
1.00009e-05
1.00009e-05
1.00009e-05
1.00009e-05
1.00009e-05
1.00008e-05
1.00008e-05
1.00008e-05
1.00009e-05
1.00009e-05
1.0001e-05
1.0001e-05
1.00009e-05
1.00008e-05
1.00008e-05
1.00008e-05
1.00009e-05
1.00009e-05
1.0001e-05
1.0001e-05
1.00009e-05
1.00008e-05
1.00008e-05
1.00008e-05
1.00008e-05
1.00008e-05
1.00008e-05
1.00008e-05
1.00008e-05
1.00008e-05
1.00008e-05
1.00008e-05
1.00008e-05
1.00008e-05
1.00009e-05
1.00009e-05
1.00008e-05
1.00008e-05
1.00008e-05
1.00007e-05
1.00007e-05
1.00007e-05
1.00008e-05
1.00008e-05
1.00008e-05
1.00008e-05
1.00008e-05
1.00008e-05
1.00007e-05
1.00008e-05
1.00008e-05
1.00008e-05
1.00007e-05
1.00007e-05
1.00007e-05
1.00007e-05
1.00007e-05
1.00007e-05
1.00008e-05
1.00007e-05
1.00007e-05
1.00006e-05
1.00006e-05
1.00006e-05
1.00006e-05
1.00007e-05
1.00007e-05
1.00007e-05
1.00006e-05
1.00006e-05
1.00007e-05
1.00006e-05
1.00006e-05
1.00006e-05
1.00006e-05
1.00006e-05
1.00006e-05
1.00006e-05
1.00006e-05
1.00006e-05
1.00006e-05
1.00006e-05
1.00006e-05
1.00006e-05
1.00006e-05
1.00006e-05
1.00006e-05
1.00006e-05
1.00006e-05
1.00006e-05
1.00007e-05
1.00006e-05
1.00006e-05
1.00006e-05
1.00006e-05
1.00005e-05
1.00005e-05
1.00005e-05
1.00005e-05
1.00005e-05
1.00005e-05
1.00005e-05
1.00006e-05
1.00005e-05
1.00005e-05
1.00006e-05
1.00006e-05
1.00005e-05
1.00005e-05
1.00005e-05
1.00005e-05
1.00005e-05
1.00005e-05
1.00005e-05
1.00006e-05
1.00006e-05
1.00006e-05
1.00006e-05
1.00006e-05
1.00005e-05
1.00004e-05
1.00004e-05
1.00005e-05
1.00004e-05
1.00004e-05
1.00004e-05
1.00004e-05
1.00004e-05
1.00004e-05
1.00004e-05
1.00005e-05
1.00005e-05
1.00004e-05
1.00004e-05
1.00004e-05
1.00004e-05
1.00004e-05
1.00004e-05
1.00004e-05
1.00004e-05
1.00004e-05
1.00004e-05
1.00004e-05
1.00004e-05
1.00004e-05
1.00004e-05
1.00004e-05
1.00003e-05
1.00004e-05
1.00004e-05
1.00004e-05
1.00004e-05
1.00004e-05
1.00004e-05
1.00003e-05
1.00003e-05
1.00003e-05
1.00003e-05
1.00003e-05
1.00003e-05
1.00003e-05
1.00003e-05
1.00003e-05
1.00003e-05
1.00003e-05
1.00003e-05
1.00003e-05
1.00003e-05
1.00003e-05
1.00003e-05
1.00003e-05
1.00003e-05
1.00003e-05
1.00003e-05
1.00003e-05
1.00002e-05
1.00002e-05
1.00002e-05
1.00002e-05
1.00002e-05
1.00002e-05
1.00002e-05
1.00002e-05
1.00002e-05
1.00003e-05
1.00003e-05
1.00003e-05
1.00003e-05
1.00002e-05
1.00002e-05
1.00002e-05
1.00002e-05
1.00002e-05
1.00002e-05
1.00001e-05
1.00002e-05
1.00002e-05
1.00001e-05
1.00001e-05
1.00002e-05
1.00002e-05
1.00001e-05
1.00001e-05
1.00001e-05
1.00001e-05
1.00001e-05
1.00001e-05
1.00001e-05
1.00001e-05
1.00001e-05
1.00001e-05
1.00001e-05
1.00001e-05
1.00001e-05
1.00001e-05
1.00001e-05
1.00001e-05
1.00001e-05
1e-05
1e-05
1e-05
1e-05
1e-05
1.00001e-05
1.00001e-05
1e-05
1e-05
1.00001e-05
1e-05
1e-05
1.00001e-05
1.00001e-05
1.00001e-05
1.00001e-05
1e-05
1e-05
1e-05
9.99997e-06
9.99998e-06
1e-05
1e-05
9.99999e-06
9.99999e-06
1e-05
1e-05
9.99998e-06
9.99999e-06
1e-05
9.99999e-06
9.99995e-06
9.99994e-06
9.99996e-06
9.99996e-06
9.99995e-06
9.99997e-06
1e-05
9.99999e-06
9.99996e-06
9.99994e-06
9.99996e-06
9.99995e-06
9.99994e-06
9.99995e-06
9.99999e-06
9.99998e-06
9.99996e-06
9.99995e-06
9.99997e-06
9.99995e-06
9.99992e-06
9.99992e-06
9.99994e-06
9.99993e-06
9.9999e-06
9.9999e-06
9.99991e-06
9.99989e-06
9.99986e-06
9.99987e-06
9.99991e-06
9.99993e-06
9.99993e-06
9.99994e-06
9.99995e-06
9.99991e-06
9.9999e-06
9.9999e-06
9.9999e-06
9.99988e-06
9.9999e-06
9.99995e-06
1e-05
9.99997e-06
9.99993e-06
9.99988e-06
9.99989e-06
9.99986e-06
9.99987e-06
9.99992e-06
9.99997e-06
9.99993e-06
9.9999e-06
9.99986e-06
9.99988e-06
9.99985e-06
9.99985e-06
9.99988e-06
9.99994e-06
9.99991e-06
9.99988e-06
9.99983e-06
9.99985e-06
9.99982e-06
9.99981e-06
9.99983e-06
9.99988e-06
9.99986e-06
9.99986e-06
9.99987e-06
9.99989e-06
9.99987e-06
9.99984e-06
9.99986e-06
9.9999e-06
9.99986e-06
9.99985e-06
9.99983e-06
9.99987e-06
9.99987e-06
9.99989e-06
9.99986e-06
9.99987e-06
9.99982e-06
9.9998e-06
9.99981e-06
9.99981e-06
9.99981e-06
9.99984e-06
9.99985e-06
9.99984e-06
9.9998e-06
9.99979e-06
9.99978e-06
9.99976e-06
9.99974e-06
9.99977e-06
9.99984e-06
9.99989e-06
9.99984e-06
9.9998e-06
9.99978e-06
9.99977e-06
9.99977e-06
9.99977e-06
9.9998e-06
9.99982e-06
9.99981e-06
9.99978e-06
9.99978e-06
9.9998e-06
9.99978e-06
9.99978e-06
9.9998e-06
9.99982e-06
9.99982e-06
9.99984e-06
9.99979e-06
9.99977e-06
9.99973e-06
9.99972e-06
9.99975e-06
9.99977e-06
9.99976e-06
9.99978e-06
9.99979e-06
9.99977e-06
9.99973e-06
9.99976e-06
9.99982e-06
9.99983e-06
9.9998e-06
9.99981e-06
9.99978e-06
9.9998e-06
9.99977e-06
9.99973e-06
9.9997e-06
9.99972e-06
9.99977e-06
9.99977e-06
9.99975e-06
9.99975e-06
9.99977e-06
9.99976e-06
9.99974e-06
9.99974e-06
9.99978e-06
9.99976e-06
9.99974e-06
9.99973e-06
9.99976e-06
9.99975e-06
9.99973e-06
9.99974e-06
9.99977e-06
9.99977e-06
9.99975e-06
9.99976e-06
9.99978e-06
9.99976e-06
9.99972e-06
9.99971e-06
9.99973e-06
9.99971e-06
9.9997e-06
9.99972e-06
9.99975e-06
9.99973e-06
9.99968e-06
9.99969e-06
9.99973e-06
9.99973e-06
9.99973e-06
9.99975e-06
9.99978e-06
9.99975e-06
9.9997e-06
9.9997e-06
9.99974e-06
9.99973e-06
9.99971e-06
9.99972e-06
9.99974e-06
9.99973e-06
9.99971e-06
9.99972e-06
9.99976e-06
9.99976e-06
9.99975e-06
9.99975e-06
9.99977e-06
9.99975e-06
9.99972e-06
9.99972e-06
9.99975e-06
9.99974e-06
9.99971e-06
9.99971e-06
9.99973e-06
9.99972e-06
9.9997e-06
9.99971e-06
9.99974e-06
9.99973e-06
9.9997e-06
9.9997e-06
9.99972e-06
9.99972e-06
9.99971e-06
9.99973e-06
9.99977e-06
9.99976e-06
9.99974e-06
9.99974e-06
9.99975e-06
9.99974e-06
9.99971e-06
9.99972e-06
9.99975e-06
9.99974e-06
9.99972e-06
9.99972e-06
9.99974e-06
9.99973e-06
9.99971e-06
9.99972e-06
9.99974e-06
9.99975e-06
9.99977e-06
9.99982e-06
9.99981e-06
9.99972e-06
9.99967e-06
9.99969e-06
9.99972e-06
9.99971e-06
9.99976e-06
9.99978e-06
9.9998e-06
9.99977e-06
9.99975e-06
9.99971e-06
9.99972e-06
9.99969e-06
9.99971e-06
9.99977e-06
9.99982e-06
9.99977e-06
9.99975e-06
9.99973e-06
9.99973e-06
9.9997e-06
9.99971e-06
9.99975e-06
9.99978e-06
9.99973e-06
9.99973e-06
9.99974e-06
9.99979e-06
9.99978e-06
9.99977e-06
9.99976e-06
9.99977e-06
9.99973e-06
9.99972e-06
9.99975e-06
9.99979e-06
9.99977e-06
9.99974e-06
9.99977e-06
9.99981e-06
9.99979e-06
9.99978e-06
9.99973e-06
9.99975e-06
9.99974e-06
9.99977e-06
9.99979e-06
9.99978e-06
9.99975e-06
9.99975e-06
9.99977e-06
9.99977e-06
9.99978e-06
9.99979e-06
9.99982e-06
9.99982e-06
9.99977e-06
9.99974e-06
9.99972e-06
9.99974e-06
9.99975e-06
9.99976e-06
9.99977e-06
9.99976e-06
9.99974e-06
9.99977e-06
9.99982e-06
9.99983e-06
9.99981e-06
9.99977e-06
9.99976e-06
9.99975e-06
9.99974e-06
9.99975e-06
9.99977e-06
9.9998e-06
9.99979e-06
9.9998e-06
9.99982e-06
9.99978e-06
9.99978e-06
9.99977e-06
9.99978e-06
9.99979e-06
9.99977e-06
9.99976e-06
9.99979e-06
9.99984e-06
9.99981e-06
9.9998e-06
9.99979e-06
9.99979e-06
9.99979e-06
9.9998e-06
9.99979e-06
9.99981e-06
9.99978e-06
9.99978e-06
9.99978e-06
9.9998e-06
9.99982e-06
9.99981e-06
9.99978e-06
9.99978e-06
9.99981e-06
9.9998e-06
9.9998e-06
9.99981e-06
9.99984e-06
9.9998e-06
9.99975e-06
9.99976e-06
9.9998e-06
9.9998e-06
9.99978e-06
9.99977e-06
9.9998e-06
9.99979e-06
9.99978e-06
9.99979e-06
9.99983e-06
9.99982e-06
9.99981e-06
9.99981e-06
9.99982e-06
9.9998e-06
9.99978e-06
9.99978e-06
9.99981e-06
9.9998e-06
9.99979e-06
9.99979e-06
9.99982e-06
9.99981e-06
9.9998e-06
9.9998e-06
9.99984e-06
9.99983e-06
9.99981e-06
9.99981e-06
9.99983e-06
9.99982e-06
9.9998e-06
9.99981e-06
9.99984e-06
9.99984e-06
9.99982e-06
9.99983e-06
9.99985e-06
9.99983e-06
9.99981e-06
9.99981e-06
9.99984e-06
9.99983e-06
9.99982e-06
9.99983e-06
9.99985e-06
9.99984e-06
9.99982e-06
9.99982e-06
9.99985e-06
9.99985e-06
9.99983e-06
9.99984e-06
9.99987e-06
9.99986e-06
9.99984e-06
9.99984e-06
9.99986e-06
9.99985e-06
9.99984e-06
9.99984e-06
9.99986e-06
9.99984e-06
9.99982e-06
9.99983e-06
9.99987e-06
9.99987e-06
9.99985e-06
9.99985e-06
9.99987e-06
9.99986e-06
9.99983e-06
9.99983e-06
9.99986e-06
9.99986e-06
9.99984e-06
9.99985e-06
9.99989e-06
9.99989e-06
9.99989e-06
9.99991e-06
9.99992e-06
9.99988e-06
9.99987e-06
9.99989e-06
9.9999e-06
9.99986e-06
9.99988e-06
9.99989e-06
9.99991e-06
9.99987e-06
9.99985e-06
9.99984e-06
9.99987e-06
9.99988e-06
9.99991e-06
9.99994e-06
9.99997e-06
9.99993e-06
9.99992e-06
9.99992e-06
9.99994e-06
9.99992e-06
9.9999e-06
9.99986e-06
9.99987e-06
9.99985e-06
9.99987e-06
9.99988e-06
9.99991e-06
9.99989e-06
9.99991e-06
9.99994e-06
9.99998e-06
9.99998e-06
9.99999e-06
9.99992e-06
9.99988e-06
9.99983e-06
9.99984e-06
9.99986e-06
9.9999e-06
9.9999e-06
9.99996e-06
9.99998e-06
9.99998e-06
9.99992e-06
9.9999e-06
9.9999e-06
9.99993e-06
9.99994e-06
9.99999e-06
1e-05
1e-05
1e-05
9.99999e-06
9.99994e-06
9.99995e-06
9.99995e-06
9.99998e-06
9.99998e-06
9.99998e-06
9.99994e-06
9.99995e-06
9.99994e-06
9.99997e-06
9.99996e-06
9.99999e-06
9.99999e-06
1e-05
9.99996e-06
9.99994e-06
9.99989e-06
9.9999e-06
9.99989e-06
9.99992e-06
9.99992e-06
9.99993e-06
9.9999e-06
9.99989e-06
9.99989e-06
9.99992e-06
9.99993e-06
9.99998e-06
1e-05
1e-05
1e-05
9.99997e-06
9.99992e-06
9.9999e-06
9.99991e-06
9.99996e-06
9.99997e-06
9.99998e-06
9.99993e-06
9.99991e-06
9.99989e-06
9.99989e-06
9.9999e-06
9.99996e-06
9.99999e-06
1e-05
9.99997e-06
9.99993e-06
9.99991e-06
9.99992e-06
9.99995e-06
9.99994e-06
9.99992e-06
9.99993e-06
9.99996e-06
9.99997e-06
9.99996e-06
9.99996e-06
9.99998e-06
9.99996e-06
9.99994e-06
9.99995e-06
9.99998e-06
9.99997e-06
9.99994e-06
9.99994e-06
9.99997e-06
9.99996e-06
9.99994e-06
9.99994e-06
9.99997e-06
9.99997e-06
9.99996e-06
9.99997e-06
9.99998e-06
9.99997e-06
9.99995e-06
9.99996e-06
1e-05
1e-05
9.99998e-06
9.99996e-06
9.99997e-06
9.99995e-06
9.99994e-06
9.99996e-06
1e-05
1e-05
9.99997e-06
9.99996e-06
9.99997e-06
9.99996e-06
9.99994e-06
9.99994e-06
9.99997e-06
9.99997e-06
9.99995e-06
9.99996e-06
9.99999e-06
9.99997e-06
9.99995e-06
9.99995e-06
9.99998e-06
9.99998e-06
9.99997e-06
9.99999e-06
1e-05
9.99997e-06
9.99993e-06
9.99993e-06
9.99996e-06
9.99998e-06
9.99999e-06
1e-05
1.00001e-05
1e-05
1e-05
1e-05
1e-05
9.99998e-06
9.9999e-06
9.99989e-06
9.99994e-06
9.99996e-06
9.99998e-06
1e-05
1e-05
1e-05
9.99996e-06
9.99995e-06
9.99999e-06
1e-05
1e-05
1e-05
1.00001e-05
1e-05
9.99993e-06
9.9999e-06
9.99995e-06
9.99997e-06
9.99997e-06
9.99998e-06
1e-05
1e-05
1e-05
1e-05
1.00001e-05
1.00001e-05
1.00001e-05
1e-05
1e-05
1e-05
1e-05
9.99998e-06
1e-05
9.99998e-06
9.99998e-06
1e-05
1.00001e-05
1e-05
1e-05
9.99999e-06
1e-05
1e-05
1e-05
9.99999e-06
1e-05
1e-05
1e-05
1e-05
1e-05
1e-05
1e-05
1e-05
1e-05
9.99999e-06
9.99999e-06
9.99999e-06
1e-05
1e-05
1e-05
1e-05
1.00001e-05
1.00001e-05
1e-05
1e-05
1e-05
1e-05
1.00001e-05
1e-05
9.99999e-06
9.99998e-06
1e-05
1e-05
1.00001e-05
1e-05
1e-05
1e-05
1e-05
1.00001e-05
1.00001e-05
1.00001e-05
1.00001e-05
1.00001e-05
1.00001e-05
1.00001e-05
1.00001e-05
1e-05
1e-05
1e-05
1.00001e-05
1e-05
1.00001e-05
1.00001e-05
1.00001e-05
1.00001e-05
1.00001e-05
1e-05
1e-05
9.99997e-06
9.99998e-06
1e-05
1e-05
1e-05
1e-05
1e-05
1.00001e-05
1e-05
1e-05
1e-05
1.00001e-05
1.00001e-05
1.00001e-05
1.00001e-05
1.00001e-05
1e-05
1e-05
1e-05
1e-05
9.99998e-06
1e-05
1e-05
1.00001e-05
1.00001e-05
1.00001e-05
1e-05
1e-05
1e-05
9.99998e-06
9.99993e-06
9.99993e-06
9.99999e-06
1e-05
1e-05
1e-05
1.00001e-05
1e-05
9.99998e-06
9.99997e-06
9.99999e-06
9.99998e-06
9.99997e-06
1e-05
1e-05
1e-05
9.99999e-06
9.99997e-06
9.99999e-06
9.99998e-06
9.99997e-06
1e-05
1e-05
1e-05
1e-05
1e-05
1e-05
1e-05
9.99999e-06
9.99999e-06
1e-05
1e-05
1e-05
1e-05
1e-05
1e-05
9.99997e-06
9.99997e-06
1e-05
1e-05
1e-05
1e-05
1.00001e-05
1.00001e-05
1e-05
1e-05
1e-05
1e-05
1e-05
1e-05
1e-05
9.99999e-06
9.99993e-06
9.99993e-06
9.99998e-06
9.99999e-06
9.99996e-06
9.99995e-06
9.99998e-06
9.99998e-06
9.99998e-06
1e-05
1.00001e-05
1.00001e-05
1e-05
1e-05
1e-05
9.99999e-06
9.99997e-06
9.99999e-06
1e-05
1e-05
1e-05
1e-05
1e-05
1e-05
9.99997e-06
9.99997e-06
1e-05
1e-05
9.99998e-06
9.99997e-06
1e-05
9.99999e-06
9.99998e-06
9.99999e-06
1e-05
1.00001e-05
1.00001e-05
1.00001e-05
1.00001e-05
1e-05
1e-05
1e-05
1e-05
1e-05
1e-05
9.99994e-06
9.99994e-06
9.99996e-06
1e-05
1.00001e-05
1.00001e-05
1.00001e-05
1.00001e-05
1.00001e-05
1.00001e-05
1e-05
1e-05
9.99997e-06
1e-05
1e-05
1.00001e-05
1.00001e-05
1.00001e-05
1.00001e-05
1.00001e-05
9.99999e-06
9.99999e-06
9.99999e-06
1e-05
9.99999e-06
1e-05
1e-05
1e-05
1e-05
1.00001e-05
1e-05
1e-05
9.99998e-06
1e-05
1e-05
1e-05
1.00001e-05
1.00001e-05
1.00001e-05
1.00002e-05
1.00001e-05
1.00001e-05
1.00001e-05
1.00001e-05
1.00001e-05
1.00001e-05
1.00001e-05
1.00001e-05
1e-05
1.00001e-05
1.00001e-05
1.00001e-05
1e-05
1e-05
9.99999e-06
1e-05
1.00001e-05
1.00001e-05
1.00001e-05
1.00001e-05
1e-05
9.99997e-06
9.99992e-06
9.99991e-06
9.99994e-06
1e-05
1e-05
1.00001e-05
1.00001e-05
1.00001e-05
1.00001e-05
1e-05
1e-05
1e-05
9.99999e-06
9.99995e-06
9.99991e-06
9.99989e-06
9.99984e-06
9.99987e-06
9.99995e-06
1e-05
1.00001e-05
1.00001e-05
1.00001e-05
1.00001e-05
1.00001e-05
9.99998e-06
9.99991e-06
9.9999e-06
9.99995e-06
1e-05
1e-05
1e-05
1.00001e-05
1.00001e-05
1e-05
1e-05
1e-05
9.99999e-06
9.99994e-06
9.99993e-06
9.99997e-06
9.99998e-06
9.99997e-06
9.99998e-06
1e-05
1e-05
9.99999e-06
9.99998e-06
9.99999e-06
9.99996e-06
9.99993e-06
9.99993e-06
9.99998e-06
1e-05
1e-05
1e-05
1.00001e-05
1e-05
9.99999e-06
9.99998e-06
9.99999e-06
9.99998e-06
9.99996e-06
9.99996e-06
9.99999e-06
9.99998e-06
9.99997e-06
9.99997e-06
1e-05
9.99999e-06
9.99997e-06
9.99997e-06
9.99999e-06
9.99998e-06
9.99996e-06
9.99996e-06
9.99999e-06
9.99999e-06
9.99997e-06
9.99997e-06
9.99998e-06
9.99995e-06
9.9999e-06
9.99989e-06
9.99992e-06
9.99994e-06
9.99995e-06
9.99999e-06
1e-05
1.00001e-05
1e-05
1e-05
1e-05
1e-05
9.99997e-06
9.99995e-06
9.99995e-06
9.99992e-06
9.99987e-06
9.99986e-06
9.99991e-06
9.99993e-06
9.99995e-06
9.99999e-06
1e-05
1e-05
9.99998e-06
9.99995e-06
9.99996e-06
9.99994e-06
9.99992e-06
9.99992e-06
9.99996e-06
9.99995e-06
9.99993e-06
9.99993e-06
9.99998e-06
9.99999e-06
9.99999e-06
1e-05
9.99999e-06
9.99988e-06
9.99971e-06
9.99966e-06
9.9999e-06
1.00005e-05
1.00014e-05
1.00025e-05
1.00031e-05
1.00021e-05
9.99879e-06
9.99326e-06
9.98753e-06
9.98167e-06
9.9774e-06
9.97758e-06
9.9915e-06
1.00327e-05
1.00965e-05
1.0168e-05
1.02003e-05
1.01551e-05
9.9999e-06
9.73763e-06
9.43694e-06
9.13578e-06
8.96645e-06
9.00362e-06
9.28164e-06
9.82306e-06
1.05781e-05
1.14409e-05
1.2273e-05
1.31462e-05
1.40053e-05
1.47859e-05
1.54348e-05
1.60483e-05
1.66225e-05
1.71053e-05
1.74899e-05
1.78531e-05
1.82015e-05
1.8477e-05
1.86722e-05
1.8786e-05
1.88308e-05
1.8738e-05
1.86118e-05
1.85612e-05
1.85119e-05
1.84135e-05
1.81641e-05
1.77063e-05
1.71093e-05
1.63165e-05
1.54895e-05
1.47704e-05
1.40076e-05
1.3311e-05
1.27086e-05
1.18782e-05
1.10398e-05
1.01448e-05
9.36613e-06
8.80086e-06
8.36889e-06
7.71186e-06
7.1428e-06
9.41746e-06
1.59575e-05
2.42406e-05
3.15759e-05
3.58186e-05
3.50406e-05
2.96951e-05
2.38568e-05
2.62897e-05
3.87404e-05
5.35312e-05
6.26118e-05
6.79192e-05
7.08696e-05
7.2807e-05
7.39905e-05
7.42082e-05
7.3481e-05
7.25771e-05
7.16001e-05
7.06995e-05
6.96883e-05
6.88484e-05
6.82363e-05
6.7789e-05
6.76054e-05
6.74556e-05
6.74544e-05
6.75369e-05
6.76789e-05
6.77735e-05
6.78518e-05
6.79358e-05
6.80517e-05
6.81679e-05
6.83093e-05
6.8404e-05
6.8449e-05
6.84777e-05
6.84753e-05
6.84173e-05
6.83597e-05
6.83287e-05
6.83052e-05
6.8277e-05
6.82748e-05
6.83091e-05
6.83467e-05
6.83554e-05
6.83643e-05
6.83895e-05
6.84069e-05
6.8385e-05
6.83662e-05
6.83682e-05
6.83678e-05
6.83412e-05
6.83378e-05
6.83792e-05
6.84376e-05
6.84784e-05
6.85299e-05
6.8595e-05
6.86342e-05
6.86135e-05
6.8575e-05
6.85395e-05
6.84908e-05
6.84077e-05
6.83375e-05
6.82991e-05
6.82704e-05
6.82208e-05
6.81919e-05
6.81974e-05
6.82098e-05
6.8195e-05
6.81957e-05
6.82272e-05
6.82555e-05
6.82382e-05
6.8234e-05
6.82665e-05
6.83003e-05
6.82857e-05
6.82914e-05
6.83353e-05
6.83824e-05
6.83989e-05
6.84173e-05
6.8447e-05
6.8457e-05
6.84165e-05
6.83666e-05
6.83275e-05
6.82832e-05
6.82122e-05
6.8161e-05
6.81461e-05
6.81444e-05
6.81243e-05
6.81197e-05
6.81372e-05
6.81419e-05
6.80996e-05
6.80466e-05
6.80016e-05
6.79548e-05
6.78948e-05
6.78753e-05
6.79244e-05
6.80284e-05
6.81616e-05
6.83532e-05
6.85993e-05
6.88245e-05
6.89559e-05
6.90155e-05
6.90055e-05
6.89038e-05
6.87088e-05
6.85169e-05
6.84069e-05
6.84085e-05
6.85102e-05
6.87344e-05
6.90569e-05
6.93566e-05
6.95032e-05
6.94461e-05
6.91354e-05
6.85538e-05
6.77675e-05
6.69456e-05
6.63376e-05
6.63035e-05
6.70746e-05
6.85418e-05
7.03923e-05
7.28632e-05
7.49212e-05
7.57089e-05
7.4052e-05
6.89074e-05
5.95914e-05
4.55566e-05
2.80737e-05
2.40124e-05
2.48542e-05
2.66843e-05
2.9094e-05
3.08331e-05
3.03536e-05
2.87728e-05
2.77645e-05
2.67126e-05
2.49904e-05
2.27501e-05
2.03836e-05
1.76296e-05
1.50219e-05
1.29266e-05
1.14121e-05
1.00062e-05
9.25773e-06
9.32027e-06
9.85569e-06
1.04914e-05
1.10715e-05
1.16374e-05
1.21463e-05
1.25438e-05
1.2819e-05
1.3053e-05
1.32897e-05
1.34697e-05
1.36202e-05
1.3767e-05
1.3936e-05
1.40129e-05
1.39845e-05
1.40915e-05
1.39784e-05
1.39439e-05
1.38265e-05
1.37921e-05
1.35416e-05
1.33375e-05
1.30013e-05
1.25649e-05
1.2067e-05
1.15653e-05
1.10487e-05
1.04613e-05
1.00152e-05
9.60399e-06
9.25754e-06
9.00876e-06
8.88628e-06
8.88134e-06
8.96796e-06
9.11635e-06
9.2984e-06
9.48638e-06
9.66678e-06
9.81938e-06
9.92972e-06
9.99505e-06
1.00206e-05
1.00232e-05
1.00162e-05
1.00115e-05
1.00108e-05
1.0011e-05
1.00086e-05
1.00034e-05
9.99824e-06
9.99576e-06
9.99666e-06
9.99911e-06
1.00012e-05
1.00019e-05
1.00014e-05
1.00005e-05
9.99994e-06
9.99973e-06
9.99985e-06
1.00001e-05
1.00002e-05
1.00002e-05
1.00001e-05
9.99999e-06
9.99995e-06
9.99995e-06
9.99996e-06
9.99995e-06
9.99997e-06
1e-05
1e-05
1.00001e-05
1.00001e-05
1.00001e-05
1.00001e-05
1.00001e-05
1e-05
1.00001e-05
1e-05
9.99999e-06
9.99998e-06
1e-05
1e-05
9.99999e-06
9.99996e-06
9.99995e-06
9.99994e-06
9.99993e-06
9.99994e-06
9.99996e-06
9.99996e-06
9.99996e-06
1e-05
1.00001e-05
1.00002e-05
1.00001e-05
1.00001e-05
1.00001e-05
1e-05
9.99997e-06
9.99999e-06
1.00001e-05
1.00001e-05
1.00001e-05
1e-05
1e-05
9.99998e-06
9.99993e-06
9.99994e-06
1e-05
1.00001e-05
1.00001e-05
1.00002e-05
1.00002e-05
1.00002e-05
1.00002e-05
1.00001e-05
1e-05
9.99996e-06
9.99992e-06
9.99994e-06
9.99999e-06
1e-05
9.99999e-06
9.99999e-06
1e-05
1e-05
9.99998e-06
9.99997e-06
9.99999e-06
9.99999e-06
9.99999e-06
1e-05
1.00001e-05
1.00001e-05
1.00001e-05
1.00002e-05
1.00002e-05
1.00001e-05
1.00001e-05
1.00001e-05
1.00001e-05
1.00001e-05
1e-05
1e-05
1.00001e-05
1.00001e-05
1.00001e-05
1e-05
1e-05
9.99994e-06
9.99987e-06
9.99984e-06
9.9999e-06
9.99998e-06
1.00001e-05
1.00002e-05
1.00002e-05
1.00002e-05
1.00001e-05
9.99996e-06
9.99984e-06
9.99978e-06
9.99986e-06
1e-05
1.00002e-05
1.00002e-05
1.00002e-05
1.00001e-05
1.00001e-05
1.00001e-05
1.00001e-05
1.00001e-05
1.00001e-05
1e-05
9.99994e-06
9.99985e-06
9.99981e-06
9.99981e-06
9.99989e-06
9.99996e-06
1e-05
1e-05
1e-05
1e-05
1e-05
1e-05
1e-05
1e-05
1.00001e-05
1e-05
1e-05
9.99999e-06
1e-05
1.00001e-05
1.00001e-05
1.00002e-05
1.00003e-05
1.00003e-05
1.00002e-05
1e-05
9.99987e-06
9.99977e-06
9.99983e-06
9.99995e-06
1.00001e-05
1.00001e-05
1.00001e-05
1e-05
1e-05
1e-05
1.00001e-05
1.00002e-05
1.00003e-05
1.00003e-05
1.00004e-05
1.00004e-05
1.00003e-05
1.00002e-05
1.00001e-05
9.99997e-06
9.99991e-06
9.9999e-06
9.99997e-06
1e-05
1e-05
1e-05
9.99997e-06
9.99991e-06
9.99993e-06
9.99989e-06
9.99987e-06
9.99991e-06
9.99994e-06
1e-05
1e-05
1e-05
1e-05
1e-05
1.00001e-05
1.00001e-05
1.00001e-05
1e-05
9.99997e-06
9.99996e-06
9.99993e-06
9.99991e-06
9.99992e-06
9.99998e-06
1e-05
1.00001e-05
1.00001e-05
1.00001e-05
1.00001e-05
1.00001e-05
9.99997e-06
9.9999e-06
9.99987e-06
9.99989e-06
9.99996e-06
1.00001e-05
1.00001e-05
1.00001e-05
1e-05
9.99997e-06
9.99992e-06
9.99993e-06
9.99999e-06
1.00001e-05
1.00001e-05
1e-05
9.99988e-06
9.99983e-06
9.99982e-06
9.99985e-06
9.99988e-06
9.99994e-06
9.99996e-06
9.99997e-06
9.99995e-06
9.99994e-06
9.99992e-06
9.99993e-06
9.99995e-06
1e-05
1e-05
1e-05
9.99996e-06
9.99998e-06
1e-05
1e-05
1e-05
1e-05
9.99993e-06
9.99985e-06
9.99981e-06
9.99984e-06
9.99988e-06
9.99993e-06
9.99998e-06
1e-05
1.00001e-05
1e-05
9.99996e-06
9.9999e-06
9.99989e-06
1e-05
1.00001e-05
1.00002e-05
1.00001e-05
9.99991e-06
9.99983e-06
9.99983e-06
9.9999e-06
9.99997e-06
1.00001e-05
1.00001e-05
1.00001e-05
1.00001e-05
1.00001e-05
1.00001e-05
1.00001e-05
1e-05
9.99995e-06
9.99993e-06
9.9999e-06
9.99987e-06
9.99989e-06
9.99991e-06
9.99995e-06
9.99999e-06
1.00001e-05
1.00001e-05
1.00001e-05
1.00001e-05
1.00001e-05
1.00001e-05
1.00001e-05
1e-05
1e-05
1e-05
1e-05
9.99999e-06
9.99997e-06
1e-05
1.00001e-05
1.00001e-05
1.00001e-05
9.99998e-06
9.99989e-06
9.99982e-06
9.99986e-06
9.99995e-06
1.00001e-05
1.00001e-05
1.00002e-05
1.00002e-05
1.00001e-05
9.99998e-06
9.99993e-06
9.99997e-06
1.00001e-05
1.00001e-05
1.00001e-05
1.00001e-05
1e-05
9.99995e-06
9.99997e-06
9.99998e-06
9.99998e-06
9.99997e-06
9.99999e-06
1e-05
1e-05
1e-05
1e-05
1e-05
1e-05
1e-05
1e-05
1.00001e-05
1.00001e-05
1e-05
9.99994e-06
9.9999e-06
9.99993e-06
9.99996e-06
1e-05
1.00001e-05
1.00002e-05
1.00002e-05
1.00002e-05
1.00002e-05
1.00001e-05
9.9999e-06
9.99984e-06
9.99987e-06
9.99993e-06
9.99995e-06
1.00001e-05
1.00005e-05
1.0001e-05
1.00003e-05
9.99572e-06
9.98854e-06
9.98937e-06
1.00199e-05
1.0089e-05
1.01555e-05
1.0123e-05
9.90006e-06
9.48508e-06
9.02456e-06
8.77362e-06
8.88732e-06
9.51646e-06
1.08085e-05
1.27986e-05
1.58991e-05
2.05598e-05
2.53458e-05
3.03332e-05
3.5166e-05
4.03396e-05
4.53328e-05
4.97619e-05
5.40561e-05
5.79819e-05
6.14699e-05
6.41764e-05
6.63338e-05
6.79115e-05
6.88201e-05
6.94013e-05
6.94451e-05
6.93377e-05
6.90292e-05
6.86582e-05
6.82249e-05
6.77219e-05
6.7033e-05
6.63717e-05
6.56487e-05
6.49335e-05
6.40791e-05
6.31172e-05
6.22215e-05
6.17109e-05
6.14779e-05
6.1227e-05
6.10307e-05
6.08867e-05
6.04821e-05
5.98031e-05
5.92406e-05
5.86634e-05
5.82316e-05
5.81462e-05
5.85619e-05
5.91313e-05
6.01192e-05
6.14575e-05
6.3158e-05
6.47636e-05
6.66381e-05
6.84329e-05
7.03523e-05
7.19669e-05
7.39396e-05
7.56053e-05
7.75294e-05
7.93193e-05
8.17601e-05
8.40698e-05
8.68813e-05
9.02754e-05
9.46378e-05
9.96509e-05
0.000104733
0.000109333
0.000113323
0.000116204
0.00011651
0.000113674
0.000107768
9.99769e-05
9.04778e-05
8.25083e-05
8.14517e-05
9.47408e-05
0.000153113
0.000244791
0.000286592
0.000308971
0.000339732
0.00034719
0.000344546
0.000387213
0.000343582
0.000388728
0.000363453
0.000350792
0.000361865
0.000364917
0.000342628
0.000327967
0.000373134
0.00041598
0.00037137
0.000356342
0.000343781
0.000374421
0.000353773
0.000333709
0.000348174
0.000377389
0.000339003
0.000370767
0.000341588
0.000333187
0.000344587
0.000346275
0.00034432
0.000333332
0.000342855
0.000341594
0.000337612
0.000338847
0.000351172
0.000357253
0.000346177
0.000309406
0.000348838
0.00034538
0.000338406
0.000335965
0.000338074
0.000334459
0.00034649
0.000343536
0.000339507
0.000332903
0.000336665
0.000341717
0.000344232
0.00035134
0.000340957
0.000328803
0.000332052
0.000334589
0.000346267
0.000347284
0.000331607
0.000339568
0.000366911
0.000343415
0.000342612
0.000337021
0.000340576
0.000340568
0.000343565
0.000341784
0.000353707
0.000354597
0.000337759
0.000348495
0.000380714
0.000348104
0.000357743
0.000353523
0.000327177
0.000366195
0.000336002
0.000338436
0.000346034
0.000369649
0.000346641
0.000336796
0.000339203
0.000338701
0.00033856
0.000335079
0.000361367
0.000414627
0.000350832
0.000349736
0.00036493
0.000368075
0.000349288
0.00036593
0.000348588
0.000368725
0.000357558
0.000349249
0.000342156
0.000363269
0.000337848
0.000337783
0.000335661
0.000353869
0.000339382
0.000348899
0.000344667
0.000338855
0.000341294
0.000335776
0.000399977
0.000362381
0.000355678
0.000359655
0.000368784
0.000411602
0.000412494
0.00036092
0.000351086
0.000349596
0.000352252
0.00034743
0.000346384
0.000339377
0.000347674
0.000354708
0.000319286
0.000310279
0.000299407
0.000274882
0.000221527
0.000136066
7.69947e-05
4.94409e-05
4.7652e-05
5.71444e-05
6.93355e-05
8.41474e-05
9.57309e-05
0.000104348
0.000109111
0.000112391
0.000111449
0.000109817
0.000106781
0.000103725
0.000100266
9.65029e-05
9.31259e-05
8.99319e-05
8.6731e-05
8.28284e-05
8.0151e-05
7.7561e-05
7.5259e-05
7.27479e-05
7.09912e-05
6.88839e-05
6.72062e-05
6.4968e-05
6.35067e-05
6.19628e-05
6.1185e-05
6.01741e-05
5.9636e-05
5.91241e-05
5.9029e-05
5.89436e-05
5.92509e-05
5.96648e-05
6.0298e-05
6.09547e-05
6.15135e-05
6.20515e-05
6.26168e-05
6.32301e-05
6.39282e-05
6.51519e-05
6.64434e-05
6.78576e-05
6.91922e-05
7.04569e-05
7.14982e-05
7.23204e-05
7.26399e-05
7.26202e-05
7.2238e-05
7.1439e-05
7.01009e-05
6.80464e-05
6.54564e-05
6.24618e-05
5.91548e-05
5.54312e-05
5.15521e-05
4.76405e-05
4.36304e-05
3.87515e-05
3.33289e-05
2.78359e-05
2.31126e-05
1.93162e-05
1.66743e-05
1.48428e-05
1.22726e-05
1.02947e-05
8.95368e-06
9.00295e-06
9.6763e-06
1.00893e-05
1.0209e-05
1.01616e-05
1.00939e-05
1.00551e-05
1.00342e-05
1.00238e-05
1.00123e-05
1.00047e-05
9.99922e-06
9.99794e-06
9.99871e-06
9.99973e-06
1.00003e-05
1.00003e-05
1.00002e-05
1.00001e-05
1.00001e-05
1e-05
1e-05
1e-05
1e-05
1e-05
9.99998e-06
9.99994e-06
9.99986e-06
9.99977e-06
9.99972e-06
9.99981e-06
9.99997e-06
1.00001e-05
1.00001e-05
1.00001e-05
1e-05
9.99998e-06
9.99985e-06
9.99974e-06
9.99972e-06
9.99977e-06
9.99981e-06
9.99982e-06
9.99981e-06
9.99981e-06
9.99981e-06
9.99987e-06
9.99997e-06