/*--------------------------------*- C++ -*----------------------------------*\
| =========                 |                                                 |
| \\      /  F ield         | foam-extend: Open Source CFD                    |
|  \\    /   O peration     | Version:     4.0                                |
|   \\  /    A nd           | Web:         http://www.foam-extend.org         |
|    \\/     M anipulation  |                                                 |
\*---------------------------------------------------------------------------*/
FoamFile
{
    version     2.0;
    format      ascii;
    class       regIOobject;
    location    "0.015/uniform";
    object      profilingInfo;
}
// * * * * * * * * * * * * * * * * * * * * * * * * * * * * * * * * * * * * * //

profilingInfo
(

    {
        id              11;
        parentId        10;
        description     "Foam::Time::writeObject - outputTime";
        calls           15;
        totalTime       20.2422;
        childTime       0;
        onStack         1;
    }

    {
        id              10;
        parentId        1;
        description     "Foam::Time::writeObject";
        calls           15;
        totalTime       20.2423;
        childTime       20.2422;
        onStack         1;
    }

    {
        id              1;
        description     "application::main";
        calls           1;
        totalTime       14707.9;
        childTime       3271.82;
        onStack         1;
    }

    {
        id              3;
        parentId        2;
        description     "functionObjectList::read";
        calls           1;
        totalTime       4e-06;
        childTime       0;
        onStack         0;
    }

    {
        id              9;
        parentId        1;
        description     "functionObjects_.execute()";
        calls           1499;
        totalTime       0.00562;
        childTime       0;
        onStack         0;
    }

    {
        id              2;
        parentId        1;
        description     "functionObjects_.start()";
        calls           1;
        totalTime       1.3e-05;
        childTime       4e-06;
        onStack         0;
    }

    {
        id              4;
        parentId        1;
        description     "fvMatrix::solve_U";
        calls           45000;
        totalTime       2234.23;
        childTime       1927.97;
        onStack         0;
    }

    {
        id              7;
        parentId        1;
        description     "fvMatrix::solve_h";
        calls           45000;
        totalTime       1017.34;
        childTime       958.123;
        onStack         0;
    }

    {
        id              5;
        parentId        4;
        description     "lduMatrix::solver_Ux";
        calls           45000;
        totalTime       972.496;
        childTime       0;
        onStack         0;
    }

    {
        id              6;
        parentId        4;
        description     "lduMatrix::solver_Uy";
        calls           45000;
        totalTime       955.47;
        childTime       0;
        onStack         0;
    }

    {
        id              8;
        parentId        7;
        description     "lduMatrix::solver_h";
        calls           45000;
        totalTime       958.123;
        childTime       0;
        onStack         0;
    }
);


// ************************************************************************* //
