/*--------------------------------*- C++ -*----------------------------------*\
| =========                 |                                                 |
| \\      /  F ield         | foam-extend: Open Source CFD                    |
|  \\    /   O peration     | Version:     4.0                                |
|   \\  /    A nd           | Web:         http://www.foam-extend.org         |
|    \\/     M anipulation  |                                                 |
\*---------------------------------------------------------------------------*/
FoamFile
{
    version     2.0;
    format      ascii;
    class       volScalarField;
    location    "0.021";
    object      h;
}
// * * * * * * * * * * * * * * * * * * * * * * * * * * * * * * * * * * * * * //

dimensions      [0 1 0 0 0 0 0];

internalField   nonuniform List<scalar> 
176451
(
1.00032e-05
9.99667e-06
9.99337e-06
9.99765e-06
1.0001e-05
1.00023e-05
9.9981e-06
9.99889e-06
1.00008e-05
1.00025e-05
1.00042e-05
1.00067e-05
1.00007e-05
9.9963e-06
9.99778e-06
9.99585e-06
1.00008e-05
1.00025e-05
1.00047e-05
9.99921e-06
1.00006e-05
1.00009e-05
1.00003e-05
1.00026e-05
1.00047e-05
1.00021e-05
1.00009e-05
9.99879e-06
9.9978e-06
1.00012e-05
9.99663e-06
1.00012e-05
9.99934e-06
9.99419e-06
9.99928e-06
1.00082e-05
1.00036e-05
1.0001e-05
9.99714e-06
9.99641e-06
9.99988e-06
1.00028e-05
9.99647e-06
1.00003e-05
1.00009e-05
1.00007e-05
9.99947e-06
1.00001e-05
1.00045e-05
1.00013e-05
1.00017e-05
9.99823e-06
9.99807e-06
9.99818e-06
1.00005e-05
1.00026e-05
1.00012e-05
9.99929e-06
9.99852e-06
1.0002e-05
1.00026e-05
9.995e-06
9.99575e-06
1.00014e-05
9.99984e-06
1.00039e-05
1.0003e-05
1.00006e-05
1.00001e-05
9.9989e-06
1.00004e-05
1.00018e-05
9.99962e-06
1.00047e-05
1.0001e-05
1.00017e-05
1.00002e-05
1.00005e-05
9.99792e-06
9.99684e-06
9.99872e-06
1.00048e-05
9.99588e-06
9.99857e-06
1.00008e-05
9.99862e-06
1.00027e-05
1.00033e-05
1.00013e-05
9.99937e-06
1.00042e-05
1.00001e-05
1.00033e-05
9.99956e-06
9.99782e-06
9.99699e-06
9.99744e-06
1.00018e-05
1.00057e-05
9.99577e-06
1.00008e-05
1.00003e-05
1.00024e-05
9.99835e-06
1.00018e-05
9.99918e-06
1.00021e-05
1.00049e-05
1.00037e-05
1.00028e-05
1.00039e-05
1.00017e-05
1.0001e-05
1.00018e-05
1.00017e-05
1.00049e-05
1.00039e-05
9.99996e-06
1.00034e-05
1.00014e-05
9.99868e-06
9.99453e-06
9.99781e-06
9.99635e-06
1.00012e-05
1.00012e-05
9.9981e-06
1.00018e-05
9.99925e-06
1.00029e-05
1.00013e-05
1.0001e-05
1.00008e-05
1.00022e-05
1.00008e-05
9.99793e-06
1.00027e-05
9.99734e-06
1.00005e-05
1.00003e-05
9.99912e-06
9.9984e-06
1.00054e-05
1.00026e-05
9.99519e-06
9.99796e-06
1.00019e-05
1.00004e-05
9.99975e-06
9.99904e-06
1.00039e-05
9.99973e-06
9.9979e-06
1e-05
9.99732e-06
1.00013e-05
9.99981e-06
9.99855e-06
1.00035e-05
1.00005e-05
9.99966e-06
9.9993e-06
9.99642e-06
1.00001e-05
9.99981e-06
1.00033e-05
1.00017e-05
1.00009e-05
9.99876e-06
1.00006e-05
9.99819e-06
9.99941e-06
1.00067e-05
9.99913e-06
9.99764e-06
9.99796e-06
1.00048e-05
9.99429e-06
1.00046e-05
1.00026e-05
1.0001e-05
1.00007e-05
9.99734e-06
1.00016e-05
9.99756e-06
9.99844e-06
1.00019e-05
1.00073e-05
1.00055e-05
1.0001e-05
9.99785e-06
9.99294e-06
9.98801e-06
9.98387e-06
9.98124e-06
9.9806e-06
9.98186e-06
9.98438e-06
9.98755e-06
9.99061e-06
9.99321e-06
9.99506e-06
9.99629e-06
9.99705e-06
9.99754e-06
9.99783e-06
9.99803e-06
9.9981e-06
9.99794e-06
9.99739e-06
9.9964e-06
9.99508e-06
9.99353e-06
9.99202e-06
9.99085e-06
9.99038e-06
9.99075e-06
9.99193e-06
9.99378e-06
9.99601e-06
9.99835e-06
1.00004e-05
1.00022e-05
1.00037e-05
1.00052e-05
1.00067e-05
1.00084e-05
1.00101e-05
1.00116e-05
1.00123e-05
1.00121e-05
1.00108e-05
1.00087e-05
1.00061e-05
1.00035e-05
1.00016e-05
1.00003e-05
9.99969e-06
9.99965e-06
9.99983e-06
1e-05
1.00001e-05
1.00002e-05
1.00002e-05
1.00002e-05
1.00003e-05
1.00003e-05
1.00003e-05
1.00001e-05
9.99987e-06
9.99975e-06
9.99968e-06
9.99982e-06
1.00001e-05
1.00004e-05
1.00007e-05
1.00008e-05
1.00007e-05
1.00003e-05
1e-05
9.99973e-06
9.99975e-06
1.00002e-05
1.00012e-05
1.00024e-05
1.00038e-05
1.00052e-05
1.00062e-05
1.00068e-05
1.00068e-05
1.00065e-05
1.00061e-05
1.00057e-05
1.00056e-05
1.00057e-05
1.00057e-05
1.00052e-05
1.0004e-05
1.00022e-05
9.99993e-06
9.99743e-06
9.99505e-06
9.99327e-06
9.99204e-06
9.99136e-06
9.99109e-06
9.99114e-06
9.99125e-06
9.99129e-06
9.99123e-06
9.99117e-06
9.99108e-06
9.99101e-06
9.99101e-06
9.99119e-06
9.99148e-06
9.99189e-06
9.99251e-06
9.99338e-06
9.99437e-06
9.99532e-06
9.99614e-06
9.99675e-06
9.99708e-06
9.99721e-06
9.99738e-06
9.99788e-06
9.9988e-06
1.00002e-05
1.00019e-05
1.00037e-05
1.00052e-05
1.0006e-05
1.00061e-05
1.00055e-05
1.00046e-05
1.00036e-05
1.00029e-05
1.00027e-05
1.00028e-05
1.0003e-05
1.00033e-05
1.00036e-05
1.00037e-05
1.00038e-05
1.00038e-05
1.00039e-05
1.00038e-05
1.00035e-05
1.0003e-05
1.00026e-05
1.00022e-05
1.00019e-05
1.00018e-05
1.00019e-05
1.0002e-05
1.00022e-05
1.00023e-05
1.00023e-05
1.00021e-05
1.00019e-05
1.00015e-05
1.0001e-05
1.00004e-05
9.99963e-06
9.99859e-06
9.99721e-06
9.99559e-06
9.99396e-06
9.99252e-06
9.99146e-06
9.991e-06
9.99125e-06
9.99225e-06
9.99392e-06
9.99624e-06
9.99901e-06
1.0002e-05
1.00045e-05
1.00061e-05
1.00063e-05
1.00051e-05
1.00025e-05
9.99933e-06
9.99625e-06
9.99384e-06
9.99247e-06
9.99224e-06
9.99294e-06
9.99424e-06
9.99567e-06
9.99694e-06
9.99787e-06
9.99844e-06
9.99867e-06
9.99875e-06
9.9989e-06
9.99927e-06
9.99984e-06
1.00006e-05
1.00016e-05
1.00027e-05
1.00038e-05
1.00047e-05
1.00054e-05
1.00059e-05
1.00061e-05
1.00061e-05
1.00058e-05
1.00054e-05
1.00049e-05
1.00041e-05
1.00031e-05
1.00019e-05
1.00003e-05
9.99851e-06
9.9967e-06
9.99501e-06
9.99356e-06
9.99246e-06
9.99179e-06
9.9915e-06
9.9915e-06
9.9918e-06
9.9923e-06
9.99288e-06
9.99333e-06
9.99357e-06
9.99358e-06
9.99346e-06
9.99336e-06
9.99357e-06
9.9943e-06
9.99563e-06
9.99741e-06
9.99947e-06
1.00015e-05
1.00034e-05
1.00049e-05
1.00058e-05
1.00062e-05
1.00062e-05
1.00058e-05
1.00053e-05
1.00048e-05
1.00045e-05
1.00043e-05
1.00045e-05
1.00049e-05
1.00055e-05
1.00063e-05
1.0007e-05
1.00078e-05
1.00084e-05
1.00087e-05
1.00088e-05
1.00085e-05
1.00079e-05
1.0007e-05
1.00061e-05
1.00052e-05
1.00046e-05
1.00043e-05
1.00043e-05
1.00045e-05
1.00047e-05
1.00049e-05
1.0005e-05
1.00049e-05
1.00045e-05
1.00034e-05
1.00015e-05
9.99848e-06
9.99466e-06
9.99e-06
9.98553e-06
9.98175e-06
9.97931e-06
9.97817e-06
9.97863e-06
9.9805e-06
9.98335e-06
9.98707e-06
9.99096e-06
9.99499e-06
9.99868e-06
1.00021e-05
1.00048e-05
1.0007e-05
1.00085e-05
1.00095e-05
1.00101e-05
1.00104e-05
1.00105e-05
1.00102e-05
1.00097e-05
1.00089e-05
1.00079e-05
1.00065e-05
1.00049e-05
1.00031e-05
1.00013e-05
9.99976e-06
9.99845e-06
9.99746e-06
9.99684e-06
9.9965e-06
9.99651e-06
9.99686e-06
9.99746e-06
9.99825e-06
9.99914e-06
9.99995e-06
1.00005e-05
1.00005e-05
1.00002e-05
9.99938e-06
9.99831e-06
9.99708e-06
9.99604e-06
9.99544e-06
9.99544e-06
9.99608e-06
9.99731e-06
9.99886e-06
1.00004e-05
1.00017e-05
1.00025e-05
1.00028e-05
1.00025e-05
1.00019e-05
1.00011e-05
1.00002e-05
9.99923e-06
9.99819e-06
9.99734e-06
9.99674e-06
9.99642e-06
9.9964e-06
9.9968e-06
9.99759e-06
9.99859e-06
9.99969e-06
1.00007e-05
1.00015e-05
1.0002e-05
1.0002e-05
1.00016e-05
1.00007e-05
9.99942e-06
9.99804e-06
9.99688e-06
9.99619e-06
9.99612e-06
9.99662e-06
9.99747e-06
9.99849e-06
9.9995e-06
1.00004e-05
1.0001e-05
1.00014e-05
1.00015e-05
1.00013e-05
1.00007e-05
9.99967e-06
9.99856e-06
9.9975e-06
9.99664e-06
9.99612e-06
9.99596e-06
9.99604e-06
9.99615e-06
9.99627e-06
9.99641e-06
9.99669e-06
9.99719e-06
9.99804e-06
9.99929e-06
1.00009e-05
1.00029e-05
1.00051e-05
1.00077e-05
1.00107e-05
1.00139e-05
1.00173e-05
1.00203e-05
1.00226e-05
1.00237e-05
1.00233e-05
1.00216e-05
1.00189e-05
1.00157e-05
1.00125e-05
1.00098e-05
1.00077e-05
1.00058e-05
1.00039e-05
1.00019e-05
9.99937e-06
9.99646e-06
9.99327e-06
9.99025e-06
9.98765e-06
9.98575e-06
9.98472e-06
9.9846e-06
9.98523e-06
9.98627e-06
9.98749e-06
9.98863e-06
9.98962e-06
9.99034e-06
9.99091e-06
9.99147e-06
9.99216e-06
9.99298e-06
9.994e-06
9.9952e-06
9.9966e-06
9.99806e-06
9.99965e-06
1.00013e-05
1.00032e-05
1.0005e-05
1.00069e-05
1.00087e-05
1.00103e-05
1.00116e-05
1.00127e-05
1.00134e-05
1.0014e-05
1.00141e-05
1.00138e-05
1.0013e-05
1.00115e-05
1.00095e-05
1.00069e-05
1.00042e-05
1.00017e-05
9.99974e-06
9.99872e-06
9.99876e-06
9.99978e-06
1.00014e-05
1.00032e-05
1.00048e-05
1.00056e-05
1.00055e-05
1.00042e-05
1.00019e-05
9.99894e-06
9.99552e-06
9.99237e-06
9.98993e-06
9.98851e-06
9.98811e-06
9.98882e-06
9.99035e-06
9.99223e-06
9.99408e-06
9.99543e-06
9.99621e-06
9.99649e-06
9.99659e-06
9.99711e-06
9.99852e-06
1.00009e-05
1.00044e-05
1.0008e-05
1.00115e-05
1.00139e-05
1.00151e-05
1.00148e-05
1.00133e-05
1.00113e-05
1.00087e-05
1.00061e-05
1.00036e-05
1.00013e-05
9.99903e-06
9.99734e-06
9.9963e-06
9.99627e-06
9.99735e-06
9.9996e-06
1.00029e-05
1.00067e-05
1.00107e-05
1.0014e-05
1.00163e-05
1.00171e-05
1.00165e-05
1.00148e-05
1.00121e-05
1.00093e-05
1.00064e-05
1.00042e-05
1.00024e-05
1.0001e-05
9.99966e-06
9.99826e-06
9.99657e-06
9.99483e-06
9.99312e-06
9.99185e-06
9.9911e-06
9.9909e-06
9.99112e-06
9.99162e-06
9.99222e-06
9.99268e-06
9.99293e-06
9.99299e-06
9.99285e-06
9.99245e-06
9.99172e-06
9.99069e-06
9.98949e-06
9.98826e-06
9.98717e-06
9.98645e-06
9.98627e-06
9.98648e-06
9.98686e-06
9.98713e-06
9.98705e-06
9.98646e-06
9.98546e-06
9.98428e-06
9.98313e-06
9.98243e-06
9.98228e-06
9.98288e-06
9.98432e-06
9.98664e-06
9.99006e-06
9.9945e-06
1e-05
1.00061e-05
1.00125e-05
1.00183e-05
1.00228e-05
1.00255e-05
1.00265e-05
1.00256e-05
1.00235e-05
1.00208e-05
1.00177e-05
1.00148e-05
1.00121e-05
1.00095e-05
1.00065e-05
1.0003e-05
9.99904e-06
9.99486e-06
9.99068e-06
9.98698e-06
9.98405e-06
9.98216e-06
9.98124e-06
9.98112e-06
9.98159e-06
9.98239e-06
9.98334e-06
9.98421e-06
9.98505e-06
9.98592e-06
9.98699e-06
9.98832e-06
9.9901e-06
9.99246e-06
9.99555e-06
9.99924e-06
1.00035e-05
1.0008e-05
1.00125e-05
1.00164e-05
1.00194e-05
1.00212e-05
1.0022e-05
1.00217e-05
1.00207e-05
1.00195e-05
1.0018e-05
1.00161e-05
1.00138e-05
1.00107e-05
1.00067e-05
1.00017e-05
9.9961e-06
9.99061e-06
9.98582e-06
9.98252e-06
9.9813e-06
9.98244e-06
9.9857e-06
9.99023e-06
9.99513e-06
9.99923e-06
1.00018e-05
1.00024e-05
1.00012e-05
9.99871e-06
9.99561e-06
9.99267e-06
9.9904e-06
9.9891e-06
9.98861e-06
9.98861e-06
9.98885e-06
9.98921e-06
9.9898e-06
9.99083e-06
9.99267e-06
9.99548e-06
9.99922e-06
1.00034e-05
1.00074e-05
1.00105e-05
1.00124e-05
1.00129e-05
1.00121e-05
1.00107e-05
1.00089e-05
1.00072e-05
1.00057e-05
1.00048e-05
1.00042e-05
1.00038e-05
1.00035e-05
1.0003e-05
1.00022e-05
1.0001e-05
9.99939e-06
9.99756e-06
9.99567e-06
9.99396e-06
9.99261e-06
9.99178e-06
9.99142e-06
9.99144e-06
9.99181e-06
9.99241e-06
9.99315e-06
9.99411e-06
9.99541e-06
9.99717e-06
9.99932e-06
1.00019e-05
1.00045e-05
1.00069e-05
1.00088e-05
1.00099e-05
1.00101e-05
1.00094e-05
1.00081e-05
1.00064e-05
1.00048e-05
1.00035e-05
1.00028e-05
1.00025e-05
1.00028e-05
1.00035e-05
1.00043e-05
1.00049e-05
1.00051e-05
1.00049e-05
1.00041e-05
1.00028e-05
1.00014e-05
9.99999e-06
9.99896e-06
9.99825e-06
9.99812e-06
9.99852e-06
9.99938e-06
1.00005e-05
1.00017e-05
1.00028e-05
1.00036e-05
1.00038e-05
1.00034e-05
1.00024e-05
1.00008e-05
9.99878e-06
9.99663e-06
9.9943e-06
9.99224e-06
9.99011e-06
9.98821e-06
9.98622e-06
9.98417e-06
9.982e-06
9.97989e-06
9.97798e-06
9.97639e-06
9.97531e-06
9.97484e-06
9.97507e-06
9.97593e-06
9.97741e-06
9.97944e-06
9.98207e-06
9.98508e-06
9.98846e-06
9.99184e-06
9.99513e-06
9.99799e-06
1.00004e-05
1.00022e-05
1.00033e-05
1.00038e-05
1.00038e-05
1.00034e-05
1.00028e-05
1.00022e-05
1.00015e-05
1.00008e-05
1.00001e-05
9.99945e-06
9.99866e-06
9.99782e-06
9.99696e-06
9.99615e-06
9.9956e-06
9.99551e-06
9.99602e-06
9.99716e-06
9.99885e-06
1.00009e-05
1.00031e-05
1.00051e-05
1.00068e-05
1.0008e-05
1.00087e-05
1.0009e-05
1.0009e-05
1.00088e-05
1.00085e-05
1.00081e-05
1.00074e-05
1.00065e-05
1.00052e-05
1.00036e-05
1.00017e-05
9.99971e-06
9.99775e-06
9.99611e-06
9.99484e-06
9.99396e-06
9.99351e-06
9.99347e-06
9.99374e-06
9.9942e-06
9.99484e-06
9.9956e-06
9.99643e-06
9.99719e-06
9.99794e-06
9.99871e-06
9.99963e-06
1.00007e-05
1.0002e-05
1.00036e-05
1.00054e-05
1.00073e-05
1.0009e-05
1.00104e-05
1.00113e-05
1.00115e-05
1.00108e-05
1.00095e-05
1.00077e-05
1.00058e-05
1.0004e-05
1.00029e-05
1.00026e-05
1.0003e-05
1.0004e-05
1.00053e-05
1.00064e-05
1.00072e-05
1.00074e-05
1.00072e-05
1.00067e-05
1.00059e-05
1.00051e-05
1.00043e-05
1.00036e-05
1.00029e-05
1.0002e-05
1.0001e-05
9.99966e-06
9.99808e-06
9.99636e-06
9.99485e-06
9.9938e-06
9.99346e-06
9.99401e-06
9.99538e-06
9.99732e-06
9.99924e-06
1.00007e-05
1.00013e-05
1.0001e-05
9.99995e-06
9.99838e-06
9.99687e-06
9.99569e-06
9.99499e-06
9.99471e-06
9.99466e-06
9.99455e-06
9.9941e-06
9.99325e-06
9.99209e-06
9.99076e-06
9.98947e-06
9.9884e-06
9.9877e-06
9.98735e-06
9.98726e-06
9.98747e-06
9.98805e-06
9.98918e-06
9.99092e-06
9.9934e-06
9.99657e-06
1.00003e-05
1.0004e-05
1.00074e-05
1.00098e-05
1.00111e-05
1.00108e-05
1.0009e-05
1.0006e-05
1.00023e-05
9.9982e-06
9.99448e-06
9.99177e-06
9.99035e-06
9.99049e-06
9.99223e-06
9.99532e-06
9.99898e-06
1.00027e-05
1.00054e-05
1.00067e-05
1.00063e-05
1.00041e-05
1.00007e-05
9.99673e-06
9.99302e-06
9.98988e-06
9.98812e-06
9.98769e-06
9.98844e-06
9.99e-06
9.99185e-06
9.9937e-06
9.99521e-06
9.99631e-06
9.99699e-06
9.99741e-06
9.99773e-06
9.99811e-06
9.99865e-06
9.99941e-06
1.00003e-05
1.00012e-05
1.0002e-05
1.00025e-05
1.00026e-05
1.00022e-05
1.00015e-05
1.00003e-05
9.99898e-06
9.99754e-06
9.99642e-06
9.99558e-06
9.99505e-06
9.99463e-06
9.99419e-06
9.99343e-06
9.99223e-06
9.99035e-06
9.9883e-06
9.98622e-06
9.98486e-06
9.9846e-06
9.98598e-06
9.98925e-06
9.99402e-06
1.00003e-05
1.00068e-05
1.00134e-05
1.00187e-05
1.00227e-05
1.00248e-05
1.00251e-05
1.00238e-05
1.00212e-05
1.0018e-05
1.00142e-05
1.00107e-05
1.00073e-05
1.00047e-05
1.00027e-05
1.00015e-05
1.0001e-05
1.0001e-05
1.00014e-05
1.0002e-05
1.00025e-05
1.00031e-05
1.00035e-05
1.0004e-05
1.00043e-05
1.00046e-05
1.00047e-05
1.00043e-05
1.00033e-05
1.00015e-05
9.99888e-06
9.99571e-06
9.99213e-06
9.98877e-06
9.98584e-06
9.9839e-06
9.98314e-06
9.98388e-06
9.98608e-06
9.98942e-06
9.99372e-06
9.99814e-06
1.00023e-05
1.00055e-05
1.00073e-05
1.00075e-05
1.00064e-05
1.00041e-05
1.00013e-05
9.99837e-06
9.99584e-06
9.99411e-06
9.99325e-06
9.99313e-06
9.99358e-06
9.99436e-06
9.99525e-06
9.99604e-06
9.99669e-06
9.99721e-06
9.9977e-06
9.99819e-06
9.99883e-06
9.99969e-06
1.00008e-05
1.0002e-05
1.00031e-05
1.00039e-05
1.00043e-05
1.00039e-05
1.00029e-05
1.00015e-05
9.9996e-06
9.99769e-06
9.99602e-06
9.99492e-06
9.99452e-06
9.99484e-06
9.99582e-06
9.99727e-06
9.99897e-06
1.00006e-05
1.00019e-05
1.00029e-05
1.00034e-05
1.00034e-05
1.00031e-05
1.00027e-05
1.00021e-05
1.00013e-05
1.00002e-05
9.99895e-06
9.99732e-06
9.99536e-06
9.99322e-06
9.99124e-06
9.98968e-06
9.98882e-06
9.9889e-06
9.99003e-06
9.99216e-06
9.99495e-06
9.99812e-06
1.00012e-05
1.00038e-05
1.00056e-05
1.00064e-05
1.00063e-05
1.00054e-05
1.00039e-05
1.00021e-05
1.00004e-05
9.99906e-06
9.99812e-06
9.99764e-06
9.99764e-06
9.99798e-06
9.99842e-06
9.99887e-06
9.99925e-06
9.99945e-06
9.99925e-06
9.99861e-06
9.99761e-06
9.99632e-06
9.99493e-06
9.99373e-06
9.99309e-06
9.99315e-06
9.9939e-06
9.99527e-06
9.99701e-06
9.99887e-06
1.00005e-05
1.00017e-05
1.00025e-05
1.0003e-05
1.0003e-05
1.00028e-05
1.00025e-05
1.00022e-05
1.0002e-05
1.0002e-05
1.00023e-05
1.00028e-05
1.00035e-05
1.00044e-05
1.00053e-05
1.00061e-05
1.00067e-05
1.00069e-05
1.00068e-05
1.00063e-05
1.00053e-05
1.00041e-05
1.00028e-05
1.00017e-05
1.00008e-05
1.00004e-05
1.00005e-05
1.0001e-05
1.00017e-05
1.00025e-05
1.00032e-05
1.00036e-05
1.00036e-05
1.0003e-05
1.0002e-05
1.00008e-05
9.99924e-06
9.99789e-06
9.99671e-06
9.99601e-06
9.99571e-06
9.99587e-06
9.99635e-06
9.99698e-06
9.99751e-06
9.99776e-06
9.99764e-06
9.99716e-06
9.99618e-06
9.99497e-06
9.99358e-06
9.99236e-06
9.99132e-06
9.99075e-06
9.99064e-06
9.99115e-06
9.99224e-06
9.99377e-06
9.9956e-06
9.99745e-06
9.99924e-06
1.00007e-05
1.00018e-05
1.00024e-05
1.00026e-05
1.00024e-05
1.00018e-05
1.0001e-05
1.00001e-05
9.99922e-06
9.99846e-06
9.99802e-06
9.99783e-06
9.99799e-06
9.99843e-06
9.9991e-06
9.99991e-06
1.00007e-05
1.00015e-05
1.00021e-05
1.00023e-05
1.00023e-05
1.00021e-05
1.00017e-05
1.00013e-05
1.0001e-05
1.00009e-05
1.00011e-05
1.00014e-05
1.00019e-05
1.00023e-05
1.00026e-05
1.00025e-05
1.00022e-05
1.00016e-05
1.0001e-05
1.00002e-05
9.99958e-06
9.9991e-06
9.99888e-06
9.9988e-06
9.99888e-06
9.99904e-06
9.99921e-06
9.99934e-06
9.99949e-06
9.99964e-06
9.9998e-06
9.99994e-06
1.00001e-05
1.00002e-05
1.00003e-05
1.00004e-05
1.00004e-05
1.00004e-05
1.00003e-05
1.00001e-05
9.99959e-06
9.99892e-06
9.99818e-06
9.99749e-06
9.997e-06
9.99685e-06
9.99717e-06
9.99795e-06
9.99903e-06
1.00003e-05
1.00015e-05
1.00026e-05
1.00033e-05
1.00035e-05
1.00032e-05
1.00024e-05
1.00013e-05
1e-05
9.99872e-06
9.99759e-06
9.99675e-06
9.99635e-06
9.9965e-06
9.99721e-06
9.99834e-06
9.9998e-06
1.00014e-05
1.0003e-05
1.00042e-05
1.0005e-05
1.00051e-05
1.00046e-05
1.00034e-05
1.00014e-05
9.99918e-06
9.99675e-06
9.9945e-06
9.99272e-06
9.99176e-06
9.99175e-06
9.99265e-06
9.99438e-06
9.99664e-06
9.99916e-06
1.00014e-05
1.00032e-05
1.00041e-05
1.00042e-05
1.00034e-05
1.00019e-05
1.00002e-05
9.99837e-06
9.99682e-06
9.99577e-06
9.99544e-06
9.99586e-06
9.99689e-06
9.99839e-06
1.00001e-05
1.00017e-05
1.0003e-05
1.00037e-05
1.0004e-05
1.00037e-05
1.00029e-05
1.00019e-05
1.00007e-05
9.99942e-06
9.9982e-06
9.9971e-06
9.99627e-06
9.99575e-06
9.99556e-06
9.99578e-06
9.99647e-06
9.99767e-06
9.99922e-06
1.00011e-05
1.00031e-05
1.0005e-05
1.00067e-05
1.00079e-05
1.00086e-05
1.00087e-05
1.00081e-05
1.00071e-05
1.00057e-05
1.00041e-05
1.00024e-05
1.00008e-05
9.99944e-06
9.99847e-06
9.99778e-06
9.99747e-06
9.99748e-06
9.99787e-06
9.99852e-06
9.9993e-06
1.00001e-05
1.00008e-05
1.00013e-05
1.00015e-05
1.00016e-05
1.00016e-05
1.00016e-05
1.00018e-05
1.00023e-05
1.0003e-05
1.0004e-05
1.00048e-05
1.00051e-05
1.00045e-05
1.00024e-05
9.999e-06
9.99386e-06
9.98789e-06
9.98081e-06
9.97417e-06
9.9692e-06
9.96794e-06
9.97198e-06
9.98351e-06
1.00033e-05
1.00298e-05
1.00663e-05
1.01039e-05
1.01431e-05
1.01717e-05
1.01869e-05
1.01767e-05
1.01346e-05
1.0063e-05
9.95484e-06
9.83634e-06
9.69163e-06
9.53264e-06
9.32479e-06
9.0878e-06
8.85132e-06
8.77961e-06
9.00429e-06
9.47447e-06
9.86668e-06
9.70029e-06
9.04851e-06
9.68207e-06
1.40894e-05
2.02353e-05
2.59703e-05
2.83661e-05
2.60596e-05
2.05127e-05
2.44918e-05
4.20048e-05
6.19067e-05
7.97542e-05
9.69485e-05
0.000111725
0.000125442
0.000137094
0.000147454
0.000159445
0.000169651
0.000176888
0.000182076
0.000209562
0.000223287
0.000214767
0.000211926
0.000214416
0.000205376
0.000190839
0.000197177
0.000186689
0.000194696
0.000193241
0.00017752
0.000180929
0.000177597
0.000182888
0.000184076
0.000180245
0.00019146
0.000194481
0.00019356
0.000193445
0.000197272
0.000205854
0.00019201
0.000192091
0.000195232
0.00019954
0.00020503
0.000189182
0.00019893
0.000198632
0.000199853
0.000190573
0.000196727
0.000202242
0.000204281
0.000213238
0.000199462
0.000196261
0.000186707
0.000176837
0.000184701
0.00018671
0.000195275
0.000225279
0.000191795
0.000218649
0.000190168
0.000224457
0.000200259
0.000190609
0.000200337
0.00020674
0.000200521
0.000195389
0.000225544
0.000218857
0.000195552
0.000208863
0.000196848
0.000202783
0.000210502
0.00020491
0.000223828
0.000236525
0.000206182
0.000207323
0.000197888
0.000212384
0.000228252
0.000207727
0.000214622
0.000199868
0.000218962
0.000199326
0.000194269
0.000195658
0.000206636
0.000197564
0.000201456
0.000208742
0.000202396
0.000209324
0.000208691
0.000220688
0.000222464
0.000205593
0.000205461
0.000196305
0.000186678
0.000190096
0.000180181
0.000170996
0.000151976
0.000140023
0.00012126
0.000107581
9.56918e-05
7.94857e-05
6.294e-05
4.74615e-05
3.40529e-05
2.52153e-05
2.19661e-05
2.23137e-05
2.3413e-05
2.41086e-05
2.44402e-05
2.51183e-05
2.68355e-05
2.93282e-05
3.1702e-05
3.35855e-05
3.43324e-05
3.20359e-05
2.65987e-05
2.29998e-05
3.13571e-05
4.5981e-05
5.59518e-05
6.35304e-05
6.92806e-05
7.26375e-05
7.37925e-05
7.40153e-05
7.38907e-05
7.33421e-05
7.24081e-05
7.10512e-05
6.98374e-05
6.87777e-05
6.79835e-05
6.73035e-05
6.68718e-05
6.676e-05
6.69052e-05
6.71989e-05
6.75546e-05
6.79919e-05
6.84274e-05
6.88381e-05
6.91276e-05
6.93486e-05
6.94931e-05
6.95658e-05
6.95414e-05
6.94767e-05
6.93824e-05
6.92533e-05
6.90969e-05
6.89515e-05
6.88282e-05
6.87091e-05
6.86072e-05
6.85403e-05
6.84985e-05
6.8477e-05
6.84706e-05
6.85099e-05
6.85666e-05
6.85932e-05
6.86283e-05
6.86564e-05
6.8696e-05
6.87307e-05
6.87464e-05
6.87729e-05
6.88109e-05
6.87422e-05
6.87861e-05
6.88357e-05
6.88011e-05
6.88626e-05
6.881e-05
6.8788e-05
6.87433e-05
6.86903e-05
6.86589e-05
6.86353e-05
6.86521e-05
6.8683e-05
6.86543e-05
6.86643e-05
6.86562e-05
6.86576e-05
6.86038e-05
6.85932e-05
6.85652e-05
6.85516e-05
6.85076e-05
6.8559e-05
6.85497e-05
6.85448e-05
6.8605e-05
6.86078e-05
6.8639e-05
6.86637e-05
6.86367e-05
6.86819e-05
6.86497e-05
6.86731e-05
6.86597e-05
6.86751e-05
6.86797e-05
6.86058e-05
6.86212e-05
6.85829e-05
6.85967e-05
6.86185e-05
6.86767e-05
6.86802e-05
6.86687e-05
6.86405e-05
6.86119e-05
6.85736e-05
6.85865e-05
6.85806e-05
6.85719e-05
6.86033e-05
6.86652e-05
6.87216e-05
6.88067e-05
6.89231e-05
6.90129e-05
6.90339e-05
6.90041e-05
6.89258e-05
6.87694e-05
6.8533e-05
6.82929e-05
6.81154e-05
6.80414e-05
6.80816e-05
6.82998e-05
6.87019e-05
6.91649e-05
6.95424e-05
6.98047e-05
6.99068e-05
6.97091e-05
6.91247e-05
6.82733e-05
6.73976e-05
6.67893e-05
6.6591e-05
6.702e-05
6.83513e-05
7.04142e-05
7.24574e-05
7.38236e-05
7.42765e-05
7.29896e-05
6.76315e-05
5.58575e-05
3.86335e-05
2.64433e-05
2.37878e-05
2.56841e-05
2.74446e-05
2.81102e-05
2.87631e-05
2.87739e-05
2.73273e-05
2.48786e-05
2.26229e-05
2.14392e-05
2.08454e-05
2.06017e-05
2.08982e-05
2.17396e-05
2.27456e-05
2.36585e-05
2.4612e-05
2.56816e-05
2.68185e-05
2.78825e-05
2.89009e-05
2.98814e-05
3.08918e-05
3.1944e-05
3.30726e-05
3.42005e-05
3.53044e-05
3.63367e-05
3.73457e-05
3.83013e-05
3.92226e-05
4.0107e-05
4.10343e-05
4.19939e-05
4.30142e-05
4.4066e-05
4.51655e-05
4.62354e-05
4.72635e-05
4.82187e-05
4.91568e-05
5.00523e-05
5.0943e-05
5.1839e-05
5.27928e-05
5.37552e-05
5.47281e-05
5.56858e-05
5.66674e-05
5.76434e-05
5.86424e-05
5.96579e-05
6.07359e-05
6.18228e-05
6.29051e-05
6.39277e-05
6.49069e-05
6.57669e-05
6.65021e-05
6.75295e-05
6.8007e-05
6.83342e-05
6.88323e-05
6.91428e-05
6.94365e-05
6.97908e-05
6.95748e-05
6.95409e-05
6.94571e-05
6.92396e-05
6.89491e-05
6.85093e-05
6.796e-05
6.72739e-05
6.65083e-05
6.56134e-05
6.46802e-05
6.36419e-05
6.26177e-05
6.14852e-05
6.03663e-05
5.91138e-05
5.78341e-05
5.63398e-05
5.47729e-05
5.30135e-05
5.12471e-05
4.92922e-05
4.73973e-05
4.54027e-05
4.35426e-05
4.1628e-05
3.98941e-05
3.82012e-05
3.67174e-05
3.52638e-05
3.39824e-05
3.2734e-05
3.16541e-05
3.05601e-05
2.95799e-05
2.86225e-05
2.7816e-05
2.70039e-05
2.62378e-05
2.56323e-05
2.4882e-05
2.41982e-05
2.343e-05
2.27327e-05
2.18626e-05
2.10721e-05
2.02342e-05
1.94093e-05
1.8604e-05
1.78159e-05
1.70415e-05
1.61915e-05
1.54826e-05
1.47492e-05
1.40187e-05
1.33384e-05
1.26645e-05
1.20234e-05
1.14362e-05
1.08464e-05
1.03295e-05
9.88083e-06
9.50017e-06
9.191e-06
8.95322e-06
8.7832e-06
8.68379e-06
8.63301e-06
8.63577e-06
8.6868e-06
8.77599e-06
8.88748e-06
9.02235e-06
9.17013e-06
9.317e-06
9.46569e-06
9.60996e-06
9.7348e-06
9.8511e-06
9.95282e-06
1.0036e-05
1.01062e-05
1.0156e-05
1.01933e-05
1.02164e-05
1.02251e-05
1.02236e-05
1.02136e-05
1.01972e-05
1.01739e-05
1.01485e-05
1.01208e-05
1.0094e-05
1.00678e-05
1.00447e-05
1.00253e-05
1.0009e-05
9.99535e-06
9.9854e-06
9.9786e-06
9.97417e-06
9.97177e-06
9.97147e-06
9.97282e-06
9.97546e-06
9.97926e-06
9.98374e-06
9.98854e-06
9.99321e-06
9.99744e-06
1.00007e-05
1.00027e-05
1.00033e-05
1.00026e-05
1.0001e-05
9.99862e-06
9.99618e-06
9.99409e-06
9.99282e-06
9.99251e-06
9.993e-06
9.99408e-06
9.99554e-06
9.99722e-06
9.99887e-06
1.00005e-05
1.0002e-05
1.00034e-05
1.00045e-05
1.00051e-05
1.0005e-05
1.00041e-05
1.00024e-05
9.99995e-06
9.99713e-06
9.9943e-06
9.99193e-06
9.99042e-06
9.99017e-06
9.99133e-06
9.99366e-06
9.9968e-06
1.00001e-05
1.00031e-05
1.00052e-05
1.00062e-05
1.00062e-05
1.00055e-05
1.00046e-05
1.00039e-05
1.00037e-05
1.00042e-05
1.00051e-05
1.0006e-05
1.00068e-05
1.0007e-05
1.00066e-05
1.00054e-05
1.00037e-05
1.00017e-05
9.99958e-06
9.99749e-06
9.9957e-06
9.9943e-06
9.99337e-06
9.99301e-06
9.99337e-06
9.9945e-06
9.99624e-06
9.9985e-06
1.0001e-05
1.00036e-05
1.00057e-05
1.00071e-05
1.00075e-05
1.00068e-05
1.00051e-05
1.00025e-05
9.9995e-06
9.99651e-06
9.99391e-06
9.99198e-06
9.99102e-06
9.99109e-06
9.99206e-06
9.99377e-06
9.99595e-06
9.99835e-06
1.00006e-05
1.00025e-05
1.00038e-05
1.00044e-05
1.00044e-05
1.00039e-05
1.00034e-05
1.00029e-05
1.00025e-05
1.00021e-05
1.00018e-05
1.00015e-05
1.00011e-05
1.00006e-05
1.00001e-05
9.99949e-06
9.99867e-06
9.99776e-06
9.99672e-06
9.99582e-06
9.99515e-06
9.99506e-06
9.99567e-06
9.9969e-06
9.99858e-06
1.00002e-05
1.00015e-05
1.0002e-05
1.00015e-05
9.99996e-06
9.99747e-06
9.99467e-06
9.9917e-06
9.98938e-06
9.98781e-06
9.98739e-06
9.98795e-06
9.98929e-06
9.99114e-06
9.99318e-06
9.99531e-06
9.99722e-06
9.99886e-06
1.00001e-05
1.00009e-05
1.00013e-05
1.00013e-05
1.00011e-05
1.00004e-05
9.99967e-06
9.99875e-06
9.99781e-06
9.99703e-06
9.99648e-06
9.9961e-06
9.99586e-06
9.99574e-06
9.99572e-06
9.99583e-06
9.9962e-06
9.99692e-06
9.998e-06
9.99923e-06
1.00003e-05
1.00009e-05
1.00008e-05
1.00001e-05
9.99896e-06
9.99872e-06
9.9984e-06
9.99822e-06
9.99805e-06
9.99793e-06
9.99781e-06
9.99766e-06
9.99746e-06
9.9973e-06
9.99744e-06
9.99796e-06
9.99854e-06
9.99906e-06
9.99949e-06
9.99984e-06
1.00001e-05
1.00002e-05
1.00002e-05
1.00002e-05
1e-05
9.99987e-06
9.99968e-06
9.99953e-06
9.99944e-06
9.99949e-06
9.9997e-06
1.00001e-05
1.00007e-05
1.00015e-05
1.00023e-05
1.00029e-05
1.00033e-05
1.00033e-05
1.00028e-05
1.00021e-05
1.0001e-05
9.99985e-06
9.99867e-06
9.99762e-06
9.99671e-06
9.99612e-06
9.9959e-06
9.99623e-06
9.99704e-06
9.99816e-06
9.99941e-06
1.00006e-05
1.00014e-05
1.00019e-05
1.00019e-05
1.00016e-05
1.0001e-05
1.00003e-05
9.9997e-06
9.99924e-06
9.9989e-06
9.99872e-06
9.99865e-06
9.99868e-06
9.99873e-06
9.99874e-06
9.99865e-06
9.99845e-06
9.99817e-06
9.99796e-06
9.99789e-06
9.99806e-06
9.99842e-06
9.99893e-06
9.99953e-06
1.00001e-05
1.00007e-05
1.00009e-05
1.0001e-05
1.00009e-05
1.00006e-05
1.00004e-05
1.00001e-05
9.99977e-06
9.99939e-06
9.999e-06
9.99882e-06
9.99881e-06
9.99898e-06
9.99916e-06
9.99942e-06
9.99965e-06
9.99982e-06
9.99988e-06
9.99994e-06
9.99997e-06
9.99993e-06
9.99981e-06
9.99967e-06
9.99955e-06
9.99938e-06
9.99918e-06
9.99903e-06
9.99889e-06
9.99883e-06
9.99884e-06
9.999e-06
9.99923e-06
9.99951e-06
9.99975e-06
1e-05
1.00003e-05
1.00004e-05
1.00004e-05
1.00003e-05
1.00002e-05
1.00001e-05
1e-05
1e-05
1.00002e-05
1.00005e-05
1.00008e-05
1.0001e-05
1.0001e-05
1.00009e-05
1.00007e-05
1.00005e-05
1.00002e-05
9.99985e-06
9.99952e-06
9.99928e-06
9.99911e-06
9.99906e-06
9.9991e-06
9.99941e-06
9.99996e-06
1.00008e-05
1.00017e-05
1.00027e-05
1.00035e-05
1.00038e-05
1.00032e-05
1.00014e-05
9.99781e-06
9.99224e-06
9.98579e-06
9.97874e-06
9.97396e-06
9.97372e-06
9.98005e-06
9.9964e-06
1.00206e-05
1.00573e-05
1.00961e-05
1.01432e-05
1.01811e-05
1.02111e-05
1.02199e-05
1.0208e-05
1.01704e-05
1.0095e-05
9.9967e-06
9.84823e-06
9.68941e-06
9.48592e-06
9.30149e-06
9.08433e-06
8.91706e-06
8.75469e-06
8.65599e-06
8.58184e-06
8.58453e-06
8.69605e-06
8.87184e-06
9.19316e-06
9.57025e-06
1.01816e-05
1.08147e-05
1.17451e-05
1.25868e-05
1.34961e-05
1.45261e-05
1.56906e-05
1.6857e-05
1.80819e-05
1.93576e-05
2.07244e-05
2.21587e-05
2.35338e-05
2.50256e-05
2.66028e-05
2.82069e-05
2.97449e-05
3.14034e-05
3.34284e-05
3.52224e-05
3.69847e-05
3.86374e-05
4.05023e-05
4.23467e-05
4.40523e-05
4.58188e-05
4.75569e-05
4.92809e-05
5.08558e-05
5.24968e-05
5.41938e-05
5.58023e-05
5.75359e-05
5.91086e-05
6.08551e-05
6.26072e-05
6.4216e-05
6.58464e-05
6.74774e-05
6.89199e-05
7.03916e-05
7.15734e-05
7.28406e-05
7.40046e-05
7.49736e-05
7.59535e-05
7.69775e-05
7.78532e-05
7.88385e-05
7.96109e-05
8.05137e-05
8.13542e-05
8.20005e-05
8.26037e-05
8.32251e-05
8.37408e-05
8.40814e-05
8.41321e-05
8.50473e-05
8.55262e-05
8.59314e-05
8.63589e-05
8.68384e-05
8.72471e-05
8.7438e-05
8.73343e-05
8.82044e-05
8.85619e-05
8.89357e-05
8.94945e-05
8.98792e-05
9.0477e-05
9.09471e-05
9.08653e-05
9.23095e-05
9.28485e-05
9.30352e-05
9.29946e-05
9.34383e-05
9.32923e-05
9.29464e-05
9.20047e-05
9.21504e-05
9.16221e-05
9.10499e-05
9.04418e-05
8.98482e-05
8.91818e-05
8.84571e-05
8.76631e-05
8.68664e-05
8.60109e-05
8.51141e-05
8.41592e-05
8.31932e-05
8.21853e-05
8.12014e-05
8.02421e-05
7.94668e-05
7.88126e-05
7.81798e-05
7.74572e-05
7.66459e-05
7.56837e-05
7.4523e-05
7.32318e-05
7.18702e-05
7.05537e-05
6.92859e-05
6.8004e-05
6.65718e-05
6.5061e-05
6.38475e-05
6.31968e-05
6.28556e-05
6.22465e-05
6.11854e-05
6.02645e-05
5.96199e-05
5.88863e-05
5.79791e-05
5.75522e-05
5.73814e-05
5.73298e-05
5.74851e-05
5.81738e-05
5.89327e-05
5.95332e-05
6.00277e-05
6.07531e-05
6.12988e-05
6.20229e-05
6.25779e-05
6.33638e-05
6.42094e-05
6.50601e-05
6.61001e-05
6.78142e-05
6.99857e-05
7.27082e-05
7.57195e-05
7.93914e-05
8.34596e-05
8.80147e-05
9.20311e-05
9.7844e-05
0.000103375
0.000108023
0.000110854
0.000113711
0.000114375
0.000112195
0.000107743
0.000102937
9.83662e-05
9.27836e-05
8.65299e-05
7.98936e-05
7.94746e-05
9.32525e-05
0.000131629
0.00021302
0.000267182
0.000298906
0.000310694
0.000345982
0.000359047
0.000360216
0.00035794
0.000373219
0.000366352
0.00035683
0.000365407
0.000357166
0.000342406
0.000361043
0.000366571
0.000348586
0.00033653
0.000357465
0.000332313
0.000359117
0.00039225
0.000357641
0.00035853
0.00033858
0.000350814
0.000356607
0.000337614
0.000350759
0.000350589
0.000343248
0.000339575
0.000340324
0.000329196
0.000349092
0.000329666
0.000339789
0.000324299
0.000356036
0.000334202
0.000333575
0.000341687
0.000325313
0.000327833
0.000330725
0.000338303
0.000348463
0.000344859
0.000359894
0.000410322
0.000378554
0.000342928
0.000329746
0.000326863
0.000348753
0.00036116
0.000333952
0.000348144