/*--------------------------------*- C++ -*----------------------------------*\
| =========                 |                                                 |
| \\      /  F ield         | foam-extend: Open Source CFD                    |
|  \\    /   O peration     | Version:     4.0                                |
|   \\  /    A nd           | Web:         http://www.foam-extend.org         |
|    \\/     M anipulation  |                                                 |
\*---------------------------------------------------------------------------*/
FoamFile
{
    version     2.0;
    format      ascii;
    class       volScalarField;
    location    "0.014";
    object      h;
}
// * * * * * * * * * * * * * * * * * * * * * * * * * * * * * * * * * * * * * //

dimensions      [0 1 0 0 0 0 0];

internalField   nonuniform List<scalar> 
176451
(
1.00052e-05
9.9967e-06
9.99625e-06
9.99813e-06
9.99992e-06
1.00029e-05
9.99629e-06
9.99946e-06
1.00014e-05
1.00014e-05
1.00033e-05
1.00061e-05
1.00007e-05
9.99911e-06
9.99669e-06
9.99904e-06
1.00003e-05
9.99826e-06
1.00047e-05
1.00005e-05
1.00007e-05
1.00007e-05
9.99915e-06
1.00023e-05
1.00023e-05
1.00027e-05
1.00006e-05
9.99869e-06
9.9981e-06
1.00007e-05
9.9997e-06
1.00015e-05
1.00004e-05
9.99745e-06
9.99623e-06
1.00024e-05
1.00043e-05
1.00029e-05
9.99779e-06
9.99831e-06
9.99774e-06
1.0002e-05
9.99766e-06
9.99964e-06
1.00027e-05
1.00008e-05
9.99966e-06
1.00008e-05
1.00011e-05
1.00052e-05
1.00025e-05
9.9979e-06
9.99913e-06
9.99797e-06
9.99877e-06
1.00014e-05
1.00005e-05
1.00005e-05
9.9972e-06
1.00039e-05
1.00023e-05
9.99769e-06
9.99384e-06
9.99974e-06
1.00007e-05
1.00034e-05
1.00011e-05
1.00021e-05
1.0002e-05
9.9979e-06
9.99867e-06
1.00012e-05
1.00003e-05
1.00037e-05
1.0003e-05
1.00003e-05
1.00006e-05
1.00017e-05
9.99802e-06
9.99589e-06
9.99863e-06
1.0003e-05
9.99807e-06
9.99444e-06
1.00017e-05
9.99994e-06
9.99839e-06
1.00022e-05
1.00011e-05
1.00002e-05
1.00002e-05
9.99928e-06
1.00029e-05
9.99945e-06
9.99927e-06
9.99532e-06
9.99572e-06
1.00003e-05
1.00061e-05
9.99937e-06
9.99934e-06
9.99943e-06
1.0004e-05
9.99787e-06
1.00015e-05
9.99952e-06
1.00003e-05
9.99957e-06
1.00027e-05
1.0003e-05
1.00027e-05
1.00009e-05
1.00027e-05
9.99876e-06
1.00038e-05
1.00042e-05
1.00027e-05
9.99989e-06
1.00041e-05
1.00017e-05
1.00015e-05
9.99542e-06
9.99681e-06
9.9991e-06
1.00008e-05
9.99901e-06
9.99994e-06
1.00012e-05
1.00001e-05
1.00016e-05
1.00033e-05
1.00021e-05
9.99979e-06
1.00028e-05
1.00012e-05
9.99675e-06
1.00019e-05
9.99874e-06
1.00004e-05
1.00009e-05
1.00001e-05
9.99549e-06
1.00056e-05
1.00028e-05
9.9988e-06
9.99801e-06
1.00003e-05
1.00045e-05
9.99735e-06
1.00003e-05
1.00058e-05
9.99987e-06
9.99824e-06
1.00003e-05
9.99764e-06
1.00004e-05
1.00007e-05
1.00021e-05
1.00016e-05
1.00018e-05
1.00004e-05
1.0001e-05
9.99552e-06
9.99843e-06
9.99901e-06
1.00008e-05
1.00023e-05
9.99954e-06
9.99821e-06
1.00022e-05
9.99684e-06
9.99918e-06
1.00054e-05
1.00009e-05
9.99801e-06
9.99819e-06
1.00015e-05
9.99686e-06
9.99863e-06
1.00029e-05
1.0001e-05
1.00007e-05
9.99692e-06
1.00012e-05
9.99874e-06
9.9994e-06
1e-05
1.00028e-05
1.00074e-05
1.00043e-05
1.00025e-05
9.99686e-06
9.99105e-06
9.98607e-06
9.98267e-06
9.98152e-06
9.9825e-06
9.98503e-06
9.98847e-06
9.99201e-06
9.99524e-06
9.99778e-06
9.9997e-06
1.00011e-05
1.0002e-05
1.00026e-05
1.0003e-05
1.00031e-05
1.00029e-05
1.00025e-05
1.00018e-05
1.0001e-05
1.00001e-05
9.99943e-06
9.99898e-06
9.99889e-06
9.9992e-06
9.99982e-06
1.00008e-05
1.00019e-05
1.00033e-05
1.00046e-05
1.00058e-05
1.0007e-05
1.00082e-05
1.00094e-05
1.00108e-05
1.00123e-05
1.00138e-05
1.00148e-05
1.00153e-05
1.00151e-05
1.00142e-05
1.00127e-05
1.0011e-05
1.00094e-05
1.00081e-05
1.00069e-05
1.00062e-05
1.00056e-05
1.00052e-05
1.00047e-05
1.00043e-05
1.00039e-05
1.00037e-05
1.00034e-05
1.00033e-05
1.00031e-05
1.0003e-05
1.00029e-05
1.0003e-05
1.00033e-05
1.00038e-05
1.00043e-05
1.00048e-05
1.00049e-05
1.00045e-05
1.00035e-05
1.0002e-05
1.00002e-05
9.99836e-06
9.9967e-06
9.99563e-06
9.99522e-06
9.99548e-06
9.99636e-06
9.99766e-06
9.99915e-06
1.00005e-05
1.00016e-05
1.00025e-05
1.00032e-05
1.00038e-05
1.00044e-05
1.0005e-05
1.00052e-05
1.00048e-05
1.00038e-05
1.00022e-05
1.00003e-05
9.99838e-06
9.99666e-06
9.99542e-06
9.9945e-06
9.99379e-06
9.9931e-06
9.9924e-06
9.99152e-06
9.99048e-06
9.98934e-06
9.98836e-06
9.98753e-06
9.98695e-06
9.9867e-06
9.98692e-06
9.98758e-06
9.98866e-06
9.99024e-06
9.99218e-06
9.99423e-06
9.99599e-06
9.99726e-06
9.99784e-06
9.99774e-06
9.99717e-06
9.99652e-06
9.99628e-06
9.99662e-06
9.99757e-06
9.99902e-06
1.00006e-05
1.00019e-05
1.00025e-05
1.00024e-05
1.00017e-05
1.00006e-05
9.99958e-06
9.99888e-06
9.99881e-06
9.99922e-06
9.99991e-06
1.00008e-05
1.00017e-05
1.00024e-05
1.00031e-05
1.00036e-05
1.00041e-05
1.00044e-05
1.00045e-05
1.00046e-05
1.00045e-05
1.00044e-05
1.00044e-05
1.00044e-05
1.00046e-05
1.00051e-05
1.00056e-05
1.00063e-05
1.00067e-05
1.00069e-05
1.00066e-05
1.00058e-05
1.00045e-05
1.00027e-05
1.00007e-05
9.99863e-06
9.99653e-06
9.99467e-06
9.99331e-06
9.9926e-06
9.99255e-06
9.99316e-06
9.99437e-06
9.99606e-06
9.99801e-06
1.00002e-05
1.00024e-05
1.00046e-05
1.00063e-05
1.00071e-05
1.00068e-05
1.00052e-05
1.00025e-05
9.99941e-06
9.99656e-06
9.99449e-06
9.99349e-06
9.99364e-06
9.99468e-06
9.99624e-06
9.9978e-06
9.99905e-06
9.99983e-06
1.00001e-05
1e-05
9.99977e-06
9.99961e-06
9.99972e-06
1.00001e-05
1.00007e-05
1.00015e-05
1.00024e-05
1.00033e-05
1.0004e-05
1.00047e-05
1.00051e-05
1.00054e-05
1.00054e-05
1.00053e-05
1.00049e-05
1.00044e-05
1.00037e-05
1.00029e-05
1.0002e-05
1.00009e-05
9.99982e-06
9.99881e-06
9.99797e-06
9.99727e-06
9.9968e-06
9.99657e-06
9.9966e-06
9.99684e-06
9.99734e-06
9.99807e-06
9.99888e-06
9.99948e-06
9.99969e-06
9.9994e-06
9.99859e-06
9.99737e-06
9.99604e-06
9.99491e-06
9.99417e-06
9.99388e-06
9.99411e-06
9.99479e-06
9.99583e-06
9.99693e-06
9.99791e-06
9.99859e-06
9.9989e-06
9.99875e-06
9.99833e-06
9.99789e-06
9.99764e-06
9.99768e-06
9.99815e-06
9.99902e-06
1.00002e-05
1.00014e-05
1.00025e-05
1.00035e-05
1.0004e-05
1.00041e-05
1.00038e-05
1.00032e-05
1.00024e-05
1.00012e-05
1.00002e-05
9.99935e-06
9.99885e-06
9.99857e-06
9.99856e-06
9.99866e-06
9.9987e-06
9.99851e-06
9.99824e-06
9.99785e-06
9.99729e-06
9.9964e-06
9.99527e-06
9.99374e-06
9.9919e-06
9.9897e-06
9.98766e-06
9.98605e-06
9.98518e-06
9.98509e-06
9.98598e-06
9.98786e-06
9.99052e-06
9.99396e-06
9.99763e-06
1.00014e-05
1.00049e-05
1.00081e-05
1.00104e-05
1.0012e-05
1.00129e-05
1.00131e-05
1.00128e-05
1.00122e-05
1.00114e-05
1.00105e-05
1.00096e-05
1.00088e-05
1.00081e-05
1.00074e-05
1.00068e-05
1.00062e-05
1.00055e-05
1.00047e-05
1.00038e-05
1.00026e-05
1.00012e-05
9.99968e-06
9.99822e-06
9.99702e-06
9.99624e-06
9.99591e-06
9.99609e-06
9.99661e-06
9.9972e-06
9.9977e-06
9.99806e-06
9.9983e-06
9.99848e-06
9.99874e-06
9.99923e-06
1.00001e-05
1.00012e-05
1.00026e-05
1.00041e-05
1.00055e-05
1.00065e-05
1.0007e-05
1.0007e-05
1.00064e-05
1.00054e-05
1.00039e-05
1.00024e-05
1.00007e-05
9.99906e-06
9.99737e-06
9.99604e-06
9.99513e-06
9.99471e-06
9.99481e-06
9.99551e-06
9.9967e-06
9.99811e-06
9.99955e-06
1.00007e-05
1.00015e-05
1.00018e-05
1.00014e-05
1.00004e-05
9.99899e-06
9.99739e-06
9.99583e-06
9.99472e-06
9.99426e-06
9.99454e-06
9.99544e-06
9.99663e-06
9.99788e-06
9.99896e-06
9.99977e-06
1.00002e-05
1.00003e-05
1.00002e-05
9.99997e-06
9.99964e-06
9.99945e-06
9.99963e-06
1.00004e-05
1.00016e-05
1.00032e-05
1.00048e-05
1.00059e-05
1.00062e-05
1.00056e-05
1.00041e-05
1.00021e-05
1e-05
9.99823e-06
9.99698e-06
9.9963e-06
9.99606e-06
9.99621e-06
9.99671e-06
9.99761e-06
9.99883e-06
1.00004e-05
1.00019e-05
1.00033e-05
1.00041e-05
1.00041e-05
1.00034e-05
1.0002e-05
1.00005e-05
9.99894e-06
9.99774e-06
9.99687e-06
9.99624e-06
9.99573e-06
9.99528e-06
9.99481e-06
9.99426e-06
9.99365e-06
9.9931e-06
9.99267e-06
9.99243e-06
9.99248e-06
9.99291e-06
9.99367e-06
9.99453e-06
9.99535e-06
9.99595e-06
9.99627e-06
9.99625e-06
9.99602e-06
9.99575e-06
9.99555e-06
9.99546e-06
9.99556e-06
9.99591e-06
9.99653e-06
9.99738e-06
9.99853e-06
9.99995e-06
1.00016e-05
1.00033e-05
1.0005e-05
1.00064e-05
1.00076e-05
1.00085e-05
1.00091e-05
1.00095e-05
1.00098e-05
1.00099e-05
1.00097e-05
1.00091e-05
1.00081e-05
1.00065e-05
1.00046e-05
1.00025e-05
1.00006e-05
9.99903e-06
9.99815e-06
9.99817e-06
9.9991e-06
1.00007e-05
1.00028e-05
1.00049e-05
1.00067e-05
1.00077e-05
1.00079e-05
1.00071e-05
1.00054e-05
1.00031e-05
1.00005e-05
9.99831e-06
9.99668e-06
9.99571e-06
9.99561e-06
9.99612e-06
9.99691e-06
9.99747e-06
9.99743e-06
9.9966e-06
9.99514e-06
9.99325e-06
9.99188e-06
9.99154e-06
9.99267e-06
9.99525e-06
9.99868e-06
1.00024e-05
1.00054e-05
1.00073e-05
1.00078e-05
1.0007e-05
1.00056e-05
1.00036e-05
1.00016e-05
9.99955e-06
9.99771e-06
9.99581e-06
9.99425e-06
9.9931e-06
9.9926e-06
9.99286e-06
9.99398e-06
9.99599e-06
9.99852e-06
1.00014e-05
1.00042e-05
1.00066e-05
1.00083e-05
1.00091e-05
1.0009e-05
1.0008e-05
1.00066e-05
1.00049e-05
1.00034e-05
1.00024e-05
1.00018e-05
1.00015e-05
1.00015e-05
1.00017e-05
1.0002e-05
1.00024e-05
1.00032e-05
1.00041e-05
1.00052e-05
1.00064e-05
1.00074e-05
1.00082e-05
1.00086e-05
1.00086e-05
1.00083e-05
1.00076e-05
1.00065e-05
1.00049e-05
1.00028e-05
1.00004e-05
9.99787e-06
9.99544e-06
9.99354e-06
9.99246e-06
9.99211e-06
9.99234e-06
9.99285e-06
9.99336e-06
9.99359e-06
9.99355e-06
9.9933e-06
9.99299e-06
9.99288e-06
9.99303e-06
9.99354e-06
9.99442e-06
9.99563e-06
9.99727e-06
9.99932e-06
1.00017e-05
1.00042e-05
1.00066e-05
1.00082e-05
1.00089e-05
1.00084e-05
1.00068e-05
1.00046e-05
1.0002e-05
9.99993e-06
9.99841e-06
9.99766e-06
9.9975e-06
9.99758e-06
9.99747e-06
9.99682e-06
9.99557e-06
9.99395e-06
9.99223e-06
9.99081e-06
9.99002e-06
9.99012e-06
9.99111e-06
9.99281e-06
9.99502e-06
9.99739e-06
9.99968e-06
1.00015e-05
1.00028e-05
1.00034e-05
1.00036e-05
1.00035e-05
1.00033e-05
1.00034e-05
1.0004e-05
1.00053e-05
1.00073e-05
1.00096e-05
1.00122e-05
1.00143e-05
1.00156e-05
1.00161e-05
1.00157e-05
1.00148e-05
1.00137e-05
1.00128e-05
1.00121e-05
1.00114e-05
1.00103e-05
1.00085e-05
1.00055e-05
1.00011e-05
9.9957e-06
9.99005e-06
9.98483e-06
9.98102e-06
9.9794e-06
9.9804e-06
9.98387e-06
9.98903e-06
9.99497e-06
1.00004e-05
1.00045e-05
1.00065e-05
1.00065e-05
1.0005e-05
1.00024e-05
9.9995e-06
9.99693e-06
9.99509e-06
9.994e-06
9.99347e-06
9.99335e-06
9.99356e-06
9.99411e-06
9.99504e-06
9.99652e-06
9.99859e-06
1.00012e-05
1.00038e-05
1.00062e-05
1.00078e-05
1.00086e-05
1.00085e-05
1.00077e-05
1.00066e-05
1.00055e-05
1.00046e-05
1.00039e-05
1.00033e-05
1.00029e-05
1.00024e-05
1.00018e-05
1.00011e-05
1.00002e-05
9.99923e-06
9.99827e-06
9.99751e-06
9.99708e-06
9.997e-06
9.99727e-06
9.9978e-06
9.99844e-06
9.99894e-06
9.99925e-06
9.99932e-06
9.99914e-06
9.99889e-06
9.99884e-06
9.99919e-06
9.99993e-06
1.0001e-05
1.00022e-05
1.00032e-05
1.00037e-05
1.00032e-05
1.00018e-05
9.99949e-06
9.99676e-06
9.99371e-06
9.99125e-06
9.98967e-06
9.98927e-06
9.99e-06
9.99175e-06
9.99421e-06
9.99681e-06
9.99921e-06
1.00009e-05
1.00017e-05
1.00017e-05
1.00009e-05
9.99984e-06
9.9987e-06
9.99788e-06
9.99736e-06
9.99733e-06
9.99771e-06
9.99839e-06
9.99919e-06
9.99997e-06
1.00007e-05
1.00013e-05
1.00017e-05
1.0002e-05
1.00022e-05
1.00025e-05
1.00028e-05
1.00031e-05
1.00036e-05
1.00041e-05
1.00046e-05
1.0005e-05
1.00052e-05
1.0005e-05
1.00043e-05
1.00032e-05
1.00017e-05
9.99999e-06
9.99821e-06
9.99662e-06
9.99541e-06
9.99464e-06
9.99431e-06
9.99449e-06
9.99509e-06
9.99593e-06
9.99688e-06
9.99776e-06
9.99847e-06
9.99892e-06
9.99918e-06
9.99934e-06
9.99949e-06
9.99968e-06
9.99998e-06
1.00004e-05
1.0001e-05
1.00015e-05
1.0002e-05
1.00021e-05
1.00019e-05
1.00013e-05
1.00001e-05
9.99859e-06
9.99689e-06
9.99526e-06
9.99402e-06
9.99348e-06
9.99381e-06
9.99499e-06
9.99686e-06
9.99907e-06
1.00013e-05
1.00032e-05
1.00045e-05
1.00051e-05
1.00051e-05
1.00048e-05
1.00044e-05
1.00042e-05
1.00043e-05
1.00047e-05
1.00052e-05
1.00055e-05
1.00055e-05
1.0005e-05
1.00041e-05
1.00028e-05
1.00013e-05
9.99999e-06
9.99892e-06
9.99817e-06
9.99777e-06
9.99768e-06
9.9978e-06
9.99794e-06
9.99805e-06
9.99807e-06
9.99793e-06
9.99751e-06
9.99683e-06
9.99604e-06
9.99525e-06
9.99459e-06
9.99424e-06
9.99436e-06
9.99501e-06
9.99611e-06
9.99763e-06
9.99936e-06
1.00011e-05
1.00026e-05
1.00036e-05
1.00041e-05
1.0004e-05
1.00036e-05
1.00031e-05
1.00028e-05
1.0003e-05
1.00036e-05
1.00047e-05
1.00059e-05
1.0007e-05
1.00078e-05
1.00081e-05
1.00079e-05
1.00074e-05
1.00066e-05
1.00057e-05
1.00047e-05
1.00036e-05
1.00024e-05
1.00007e-05
9.99886e-06
9.99666e-06
9.99424e-06
9.99178e-06
9.98964e-06
9.98804e-06
9.98718e-06
9.9872e-06
9.98808e-06
9.98965e-06
9.99152e-06
9.99343e-06
9.99512e-06
9.99653e-06
9.99759e-06
9.99847e-06
9.99933e-06
1.00003e-05
1.00014e-05
1.00024e-05
1.00032e-05
1.00038e-05
1.00039e-05
1.00034e-05
1.00027e-05
1.00017e-05
1.00008e-05
9.99996e-06
9.99945e-06
9.9992e-06
9.99909e-06
9.99909e-06
9.9992e-06
9.99944e-06
9.9998e-06
1.00004e-05
1.00012e-05
1.00023e-05
1.00035e-05
1.00046e-05
1.00056e-05
1.00062e-05
1.00062e-05
1.00057e-05
1.00047e-05
1.00033e-05
1.00015e-05
9.99972e-06
9.99819e-06
9.99709e-06
9.99656e-06
9.99685e-06
9.99788e-06
9.99938e-06
1.00011e-05
1.00025e-05
1.00032e-05
1.00032e-05
1.00021e-05
1.00003e-05
9.99809e-06
9.99596e-06
9.99407e-06
9.99301e-06
9.99275e-06
9.99321e-06
9.99412e-06
9.99517e-06
9.99614e-06
9.9969e-06
9.99739e-06
9.99768e-06
9.99789e-06
9.99815e-06
9.99849e-06
9.99897e-06
9.99955e-06
1.00001e-05
1.00005e-05
1.00007e-05
1.00005e-05
9.9999e-06
9.99895e-06
9.99782e-06
9.99655e-06
9.99541e-06
9.99448e-06
9.99419e-06
9.99452e-06
9.99548e-06
9.997e-06
9.99875e-06
1.00005e-05
1.00018e-05
1.00026e-05
1.00027e-05
1.00022e-05
1.00015e-05
1.00007e-05
1.00002e-05
1.00003e-05
1.00009e-05
1.0002e-05
1.00033e-05
1.00044e-05
1.00052e-05
1.00054e-05
1.00051e-05
1.00043e-05
1.00031e-05
1.00016e-05
1.00001e-05
9.99872e-06
9.99763e-06
9.99674e-06
9.99627e-06
9.99614e-06
9.9964e-06
9.99697e-06
9.99777e-06
9.9987e-06
9.99961e-06
1.00004e-05
1.00011e-05
1.00016e-05
1.0002e-05
1.00023e-05
1.00026e-05
1.00029e-05
1.00031e-05
1.00033e-05
1.00032e-05
1.00027e-05
1.00019e-05
1.00009e-05
9.99969e-06
9.99846e-06
9.99745e-06
9.99671e-06
9.99645e-06
9.99664e-06
9.99723e-06
9.99811e-06
9.99912e-06
1.00001e-05
1.00008e-05
1.00012e-05
1.00013e-05
1.00013e-05
1.00011e-05
1.0001e-05
1.00009e-05
1.00009e-05
1.00012e-05
1.00015e-05
1.00018e-05
1.00019e-05
1.00018e-05
1.00016e-05
1.00012e-05
1.00007e-05
1.00003e-05
9.99993e-06
9.99975e-06
9.99985e-06
1.00003e-05
1.00011e-05
1.0002e-05
1.0003e-05
1.00037e-05
1.0004e-05
1.00037e-05
1.00027e-05
1.00012e-05
9.99934e-06
9.99727e-06
9.99532e-06
9.99384e-06
9.99294e-06
9.9927e-06
9.99308e-06
9.99397e-06
9.9952e-06
9.99646e-06
9.99761e-06
9.99854e-06
9.99923e-06
9.99966e-06
9.99993e-06
1.00002e-05
1.00004e-05
1.00006e-05
1.00006e-05
1.00003e-05
9.99973e-06
9.99875e-06
9.99748e-06
9.9962e-06
9.99515e-06
9.9946e-06
9.99481e-06
9.99592e-06
9.99795e-06
1.00006e-05
1.00036e-05
1.00066e-05
1.00091e-05
1.00107e-05
1.00113e-05
1.00107e-05
1.00092e-05
1.0007e-05
1.00044e-05
1.00018e-05
9.99963e-06
9.99794e-06
9.99689e-06
9.99655e-06
9.99678e-06
9.99738e-06
9.99824e-06
9.99925e-06
1.00003e-05
1.0001e-05
1.00014e-05
1.00014e-05
1.0001e-05
1.00002e-05
9.99932e-06
9.99858e-06
9.99813e-06
9.99798e-06
9.99814e-06
9.99851e-06
9.99891e-06
9.99913e-06
9.99913e-06
9.99896e-06
9.99865e-06
9.9982e-06
9.99771e-06
9.99733e-06
9.99716e-06
9.99721e-06
9.99748e-06
9.998e-06
9.99872e-06
9.99953e-06
1.00003e-05
1.00011e-05
1.00017e-05
1.00021e-05
1.00022e-05
1.00021e-05
1.00018e-05
1.00013e-05
1.00008e-05
1.00003e-05
1.00001e-05
1.00001e-05
1.00003e-05
1.00007e-05
1.00013e-05
1.00019e-05
1.00025e-05
1.00028e-05
1.00031e-05
1.00032e-05
1.0003e-05
1.00027e-05
1.00022e-05
1.00016e-05
1.0001e-05
1.00004e-05
9.99988e-06
9.99946e-06
9.99925e-06
9.9992e-06
9.99931e-06
9.99946e-06
9.99962e-06
9.99977e-06
9.99988e-06
9.99983e-06
9.99966e-06
9.99933e-06
9.999e-06
9.99858e-06
9.99822e-06
9.99791e-06
9.99784e-06
9.99802e-06
9.99847e-06
9.99911e-06
9.99986e-06
1.00006e-05
1.00012e-05
1.00016e-05
1.00018e-05
1.00017e-05
1.00013e-05
1.00006e-05
9.99993e-06
9.99908e-06
9.99837e-06
9.99774e-06
9.99739e-06
9.99724e-06
9.99735e-06
9.99765e-06
9.9981e-06
9.99864e-06
9.9992e-06
9.99975e-06
1.00003e-05
1.00007e-05
1.00009e-05
1.00011e-05
1.00013e-05
1.00014e-05
1.00016e-05
1.00018e-05
1.00019e-05
1.0002e-05
1.00019e-05
1.00016e-05
1.00011e-05
1.00004e-05
9.99955e-06
9.99876e-06
9.99814e-06
9.9977e-06
9.99761e-06
9.99783e-06
9.99835e-06
9.99906e-06
9.99986e-06
1.00007e-05
1.00013e-05
1.00019e-05
1.00022e-05
1.00024e-05
1.00023e-05
1.00021e-05
1.00017e-05
1.00012e-05
1.00008e-05
1.00004e-05
1e-05
9.99986e-06
9.99983e-06
9.99992e-06
9.99996e-06
9.99994e-06
9.99988e-06
9.99982e-06
9.99979e-06
9.99987e-06
1.00001e-05
1.00005e-05
1.0001e-05
1.00014e-05
1.00018e-05
1.00019e-05
1.00018e-05
1.00014e-05
1.00009e-05
1.00003e-05
9.9996e-06
9.999e-06
9.99858e-06
9.99836e-06
9.99832e-06
9.99846e-06
9.99876e-06
9.99919e-06
9.99959e-06
9.99993e-06
1.00002e-05
1.00003e-05
1.00003e-05
1.00003e-05
1.00002e-05
1.00001e-05
1.00001e-05
1.00001e-05
1.00001e-05
1.00002e-05
1.00002e-05
1.00003e-05
1.00004e-05
1.00005e-05
1.00005e-05
1.00005e-05
1.00005e-05
1.00004e-05
1.00001e-05
9.99983e-06
9.99947e-06
9.99907e-06
9.99863e-06
9.99826e-06
9.99808e-06
9.99811e-06
9.99829e-06
9.99863e-06
9.99915e-06
9.99983e-06
1.00005e-05
1.00012e-05
1.00017e-05
1.00021e-05
1.00021e-05
1.00019e-05
1.00015e-05
1.0001e-05
1.00004e-05
9.99991e-06
9.99954e-06
9.99932e-06
9.99918e-06
9.99907e-06
9.99898e-06
9.99887e-06
9.99866e-06
9.99838e-06
9.99813e-06
9.99797e-06
9.9979e-06
9.99798e-06
9.99822e-06
9.99861e-06
9.99902e-06
9.9994e-06
9.99972e-06
9.99997e-06
1.00001e-05
1.00001e-05
1.00001e-05
1.00001e-05
1.00001e-05
1.00001e-05
1.00002e-05
1.00003e-05
1.00004e-05
1.00005e-05
1.00005e-05
1.00005e-05
1.00005e-05
1.00005e-05
1.00005e-05
1.00005e-05
1.00004e-05
1.00003e-05
1.00001e-05
9.99995e-06
9.99981e-06
9.99972e-06
9.99968e-06
9.99976e-06
9.9999e-06
1.00001e-05
1.00002e-05
1.00004e-05
1.00004e-05
1.00004e-05
1.00003e-05
1.00002e-05
1e-05
9.99986e-06
9.99971e-06
9.99964e-06
9.99957e-06
9.99956e-06
9.99959e-06
9.9997e-06
9.9998e-06
9.99994e-06
1.00001e-05
1.00002e-05
1.00003e-05
1.00003e-05
1.00003e-05
1.00002e-05
1e-05
9.99991e-06
9.99984e-06
9.99988e-06
1e-05
1.00003e-05
1.00006e-05
1.00008e-05
1.00009e-05
1.00009e-05
1.00007e-05
1.00005e-05
1.00002e-05
9.99993e-06
9.99964e-06
9.99948e-06
9.99941e-06
9.99949e-06
9.99965e-06
9.99988e-06
1.00001e-05
1.00002e-05
1.00002e-05
1.00001e-05
1e-05
9.99988e-06
9.9998e-06
9.99983e-06
9.99996e-06
1.00003e-05
1.00007e-05
1.00013e-05
1.00019e-05
1.00023e-05
1.00022e-05
1.00016e-05
9.99982e-06
9.99728e-06
9.99342e-06
9.98881e-06
9.98365e-06
9.9795e-06
9.97652e-06
9.97609e-06
9.97885e-06
9.9862e-06
9.99793e-06
1.00138e-05
1.00329e-05
1.00561e-05
1.00778e-05
1.01003e-05
1.01189e-05
1.01363e-05
1.01481e-05
1.01559e-05
1.01597e-05
1.01598e-05
1.0157e-05
1.01518e-05
1.01422e-05
1.01316e-05
1.01216e-05
1.01104e-05
1.00906e-05
1.00653e-05
1.00312e-05
9.97928e-06
9.89193e-06
9.77354e-06
9.62038e-06
9.43089e-06
9.19561e-06
8.95445e-06
8.73732e-06
8.58204e-06
8.53851e-06
8.6584e-06
8.97444e-06
9.4896e-06
1.02586e-05
1.11786e-05
1.22092e-05
1.33184e-05
1.45762e-05
1.58446e-05
1.70977e-05
1.83386e-05
1.96736e-05
2.09564e-05
2.21611e-05
2.32958e-05
2.44662e-05
2.55214e-05
2.64341e-05
2.72402e-05
2.80583e-05
2.87747e-05
2.93921e-05
2.99925e-05
3.07177e-05
3.14818e-05
3.22972e-05
3.32246e-05
3.43897e-05
3.56539e-05
3.69936e-05
3.84101e-05
3.99996e-05
4.15873e-05
4.31389e-05
4.46398e-05
4.62123e-05
4.76951e-05
4.90686e-05
5.03473e-05
5.16355e-05
5.28064e-05
5.38399e-05
5.47569e-05
5.56562e-05
5.6427e-05
5.70569e-05
5.75823e-05
5.80849e-05
5.84739e-05
5.87395e-05
5.89213e-05
5.90881e-05
5.91732e-05
5.91614e-05
5.90944e-05
5.90038e-05
5.88409e-05
5.85848e-05
5.827e-05
5.79209e-05
5.74896e-05
5.69552e-05
5.63643e-05
5.57343e-05
5.50426e-05
5.42627e-05
5.34375e-05
5.25696e-05
5.16591e-05
5.06898e-05
4.97213e-05
4.87325e-05
4.7713e-05
4.65969e-05
4.54362e-05
4.42076e-05
4.28853e-05
4.15738e-05
4.01933e-05
3.87589e-05
3.71054e-05
3.53398e-05
3.32106e-05
3.09044e-05
2.81781e-05
2.5452e-05
2.26669e-05
2.04251e-05
1.88849e-05
1.86252e-05
2.01552e-05
2.31667e-05
2.72735e-05
3.15867e-05
3.56562e-05
3.72546e-05
3.48709e-05
2.89356e-05
2.31685e-05
2.3503e-05
4.01812e-05
5.43528e-05
6.37389e-05
6.87299e-05
7.16903e-05
7.3442e-05
7.44846e-05
7.46126e-05
7.39569e-05
7.29988e-05
7.20373e-05
7.10883e-05
6.99779e-05
6.89285e-05
6.81069e-05
6.76094e-05
6.72699e-05
6.71635e-05
6.72591e-05
6.75359e-05
6.79326e-05
6.83312e-05
6.87464e-05
6.91233e-05
6.93686e-05
6.96129e-05
6.97636e-05
6.97455e-05
6.97824e-05
6.96502e-05
6.95144e-05
6.93312e-05
6.91376e-05
6.89769e-05
6.88388e-05
6.87642e-05
6.8726e-05
6.8645e-05
6.86252e-05
6.85989e-05
6.85904e-05
6.85325e-05
6.85239e-05
6.85008e-05
6.84929e-05
6.84545e-05
6.85073e-05
6.84954e-05
6.8482e-05
6.85279e-05
6.85171e-05
6.85351e-05
6.85501e-05
6.85222e-05
6.85703e-05
6.85504e-05
6.85899e-05
6.85975e-05
6.86331e-05
6.86559e-05
6.85968e-05
6.86166e-05
6.85763e-05
6.85799e-05
6.85866e-05
6.86293e-05
6.86247e-05
6.86165e-05
6.86075e-05
6.86154e-05
6.8629e-05
6.87011e-05
6.87514e-05
6.87811e-05
6.88238e-05
6.88589e-05
6.88495e-05
6.88347e-05
6.88303e-05
6.88096e-05
6.87575e-05
6.87125e-05
6.86936e-05
6.86771e-05
6.86401e-05
6.86225e-05
6.8643e-05
6.86758e-05
6.86884e-05
6.87194e-05
6.87798e-05
6.88312e-05
6.88348e-05
6.88277e-05
6.88224e-05
6.87893e-05
6.8702e-05
6.86129e-05
6.85511e-05
6.8509e-05
6.8473e-05
6.8496e-05
6.85961e-05
6.87292e-05
6.88441e-05
6.89591e-05
6.90637e-05
6.90912e-05
6.89981e-05
6.88349e-05
6.86324e-05
6.84022e-05
6.81602e-05
6.80077e-05
6.80253e-05
6.82245e-05
6.85352e-05
6.89655e-05
6.94678e-05
6.98507e-05
6.99246e-05
6.97028e-05
6.92098e-05
6.84768e-05
6.75709e-05
6.67295e-05
6.63589e-05
6.68098e-05
6.79836e-05
6.97531e-05
7.20196e-05
7.40622e-05
7.47543e-05
7.31157e-05
6.82408e-05
5.92036e-05
4.47412e-05
2.76688e-05
2.36393e-05
2.48161e-05
2.67076e-05
2.90284e-05
3.03086e-05
2.91485e-05
2.6806e-05
2.53088e-05
2.41007e-05
2.27382e-05
2.17214e-05
2.14811e-05
2.16463e-05
2.1882e-05
2.23214e-05
2.31505e-05
2.4261e-05
2.53736e-05
2.64847e-05
2.76864e-05
2.90503e-05
3.04475e-05
3.18264e-05
3.31097e-05
3.43095e-05
3.5415e-05
3.65196e-05
3.76139e-05
3.87307e-05
3.98639e-05
4.1061e-05
4.22603e-05
4.34564e-05
4.46373e-05
4.57537e-05
4.67957e-05
4.77919e-05
4.8704e-05
4.95701e-05
5.04535e-05
5.12549e-05
5.20277e-05
5.27175e-05
5.33029e-05
5.37445e-05
5.40524e-05
5.42127e-05
5.42844e-05
5.42758e-05
5.41539e-05
5.39427e-05
5.36011e-05
5.31616e-05
5.25485e-05
5.18548e-05
5.10212e-05
5.01665e-05
4.91749e-05
4.81589e-05
4.70638e-05
4.60101e-05
4.4855e-05
4.37427e-05
4.25702e-05
4.14706e-05
4.02913e-05
3.91876e-05
3.81035e-05
3.71847e-05
3.63205e-05
3.56189e-05
3.50059e-05
3.45477e-05
3.40723e-05
3.36194e-05
3.31315e-05
3.26852e-05
3.21448e-05
3.15367e-05
3.10447e-05
3.03154e-05
2.96401e-05
2.88698e-05
2.82187e-05
2.74036e-05
2.67118e-05
2.59809e-05
2.52573e-05
2.45123e-05
2.37303e-05
2.28967e-05
2.19041e-05
2.10293e-05
2.00747e-05
1.90914e-05
1.81568e-05
1.72058e-05
1.62761e-05
1.53928e-05
1.4463e-05
1.3589e-05
1.27669e-05
1.19984e-05
1.13052e-05
1.06835e-05
1.01364e-05
9.69246e-06
9.30912e-06
9.0016e-06
8.80648e-06
8.6815e-06
8.63097e-06
8.65348e-06
8.73351e-06
8.85108e-06
8.99449e-06
9.15603e-06
9.31297e-06
9.47356e-06
9.62572e-06
9.76194e-06
9.88826e-06
9.98756e-06
1.00719e-05
1.01366e-05
1.01778e-05
1.02033e-05
1.02138e-05
1.02103e-05
1.01949e-05
1.01721e-05
1.01431e-05
1.01122e-05
1.00802e-05
1.00506e-05
1.00249e-05
1.00034e-05
9.98585e-06
9.97395e-06
9.96699e-06
9.96404e-06
9.96453e-06
9.96781e-06
9.97292e-06
9.9791e-06
9.9859e-06
9.99233e-06
9.99797e-06
1.00025e-05
1.00056e-05
1.00072e-05
1.00072e-05
1.0006e-05
1.00038e-05
1.00011e-05
9.99851e-06
9.99633e-06
9.99494e-06
9.99458e-06
9.99515e-06
9.99627e-06
9.99761e-06
9.99886e-06
9.99987e-06
1.00005e-05
1.00008e-05
1.00011e-05
1.00014e-05
1.00017e-05
1.00019e-05
1.00021e-05
1.00019e-05
1.00014e-05
1.00004e-05
9.99919e-06
9.99784e-06
9.99662e-06
9.99578e-06
9.99564e-06
9.99633e-06
9.99773e-06
9.99961e-06
1.00016e-05
1.00033e-05
1.00043e-05
1.00046e-05
1.00041e-05
1.00031e-05
1.0002e-05
1.00011e-05
1.00006e-05
1.00007e-05
1.00011e-05
1.00016e-05
1.0002e-05
1.00022e-05
1.00019e-05
1.00013e-05
1.00006e-05
9.99974e-06
9.999e-06
9.99844e-06
9.99816e-06
9.99815e-06
9.9983e-06
9.99858e-06
9.99895e-06
9.99938e-06
9.99971e-06
9.99994e-06
1.00001e-05
1.00002e-05
1.00001e-05
1e-05
9.99989e-06
9.99974e-06
9.99954e-06
9.99928e-06
9.99902e-06
9.99878e-06
9.99848e-06
9.99813e-06
9.99782e-06
9.99762e-06
9.99756e-06
9.9977e-06
9.99811e-06
9.99883e-06
9.99969e-06
1.00006e-05
1.00013e-05
1.00016e-05
1.00014e-05
1.00008e-05
1.00001e-05
9.99934e-06
9.99865e-06
9.9981e-06
9.99769e-06
9.99753e-06
9.99757e-06
9.99779e-06
9.99812e-06
9.99843e-06
9.9986e-06
9.99855e-06
9.99819e-06
9.99775e-06
9.99731e-06
9.99723e-06
9.99769e-06
9.99871e-06
1.00002e-05
1.00017e-05
1.0003e-05
1.00038e-05
1.00037e-05
1.00027e-05
1.0001e-05
9.99899e-06
9.99681e-06
9.99514e-06
9.99409e-06
9.99394e-06
9.99458e-06
9.99579e-06
9.99734e-06
9.99895e-06
1.00006e-05
1.00019e-05
1.0003e-05
1.00036e-05
1.00039e-05
1.00037e-05
1.00032e-05
1.00025e-05
1.00015e-05
1.00006e-05
9.99971e-06
9.99907e-06
9.99883e-06
9.99899e-06
9.99942e-06
9.99995e-06
1.00004e-05
1.00007e-05
1.00007e-05
1.00005e-05
1.00002e-05
9.99998e-06
9.99979e-06
9.9996e-06
9.99929e-06
9.99875e-06
9.99801e-06
9.99727e-06
9.99705e-06
9.99689e-06
9.99695e-06
9.99715e-06
9.99749e-06
9.99792e-06
9.99834e-06
9.99874e-06
9.99911e-06
9.9995e-06
9.99966e-06
9.99987e-06
1e-05
1.00002e-05
1.00003e-05
1.00003e-05
1.00003e-05
1.00003e-05
1.00003e-05
1.00002e-05
1.00001e-05
9.99986e-06
9.99963e-06
9.99935e-06
9.9991e-06
9.99889e-06
9.99882e-06
9.9989e-06
9.99915e-06
9.99952e-06
9.99997e-06
1.00004e-05
1.00006e-05
1.00008e-05
1.00008e-05
1.00007e-05
1.00006e-05
1.00004e-05
1.00002e-05
9.99982e-06
9.99945e-06
9.99911e-06
9.99898e-06
9.99904e-06
9.99928e-06
9.99961e-06
9.99997e-06
1.00002e-05
1.00004e-05
1.00004e-05
1.00004e-05
1.00003e-05
1.00002e-05
1.00001e-05
1.00002e-05
1.00002e-05
1.00003e-05
1.00004e-05
1.00004e-05
1.00004e-05
1.00004e-05
1.00002e-05
9.99995e-06
9.99958e-06
9.99926e-06
9.99906e-06
9.99907e-06
9.99923e-06
9.99953e-06
9.99991e-06
1.00003e-05
1.00007e-05
1.00009e-05
1.00009e-05
1.00008e-05
1.00006e-05
1.00005e-05
1.00004e-05
1.00002e-05
9.99992e-06
9.99961e-06
9.99945e-06
9.99943e-06
9.99953e-06
9.99967e-06
9.99984e-06
1e-05
1.00001e-05
1.00001e-05
1.00002e-05
1.00002e-05
1.00002e-05
1.00001e-05
1e-05
1e-05
9.99996e-06
9.99991e-06
9.99991e-06
9.9999e-06
9.99993e-06
9.99998e-06
1.00001e-05
1.00002e-05
1.00003e-05
1.00003e-05
1.00004e-05
1.00004e-05
1.00003e-05
1.00002e-05
1.00001e-05
9.99997e-06
9.99984e-06
9.99967e-06
9.99957e-06
9.99958e-06
9.99968e-06
9.99974e-06
9.99979e-06
9.99978e-06
9.99978e-06
9.99978e-06
9.99989e-06
1e-05
1.00002e-05
1.00002e-05
1.00003e-05
1.00003e-05
1.00002e-05
1e-05
9.99998e-06
1e-05
1.00001e-05
1.00001e-05
1.00002e-05
1.00003e-05
1.00006e-05
1.0001e-05
1.00014e-05
1.00015e-05
1.00005e-05
9.99785e-06
9.99297e-06
9.98708e-06
9.98183e-06
9.98095e-06
9.9892e-06
1.00085e-05
1.00438e-05
1.00859e-05
1.01358e-05
1.01719e-05
1.01824e-05
1.01556e-05
1.00755e-05
9.95359e-06
9.76214e-06
9.5536e-06
9.27779e-06
9.03842e-06
8.8314e-06
8.73208e-06
8.74371e-06
8.88407e-06
9.25493e-06
9.67325e-06
1.03516e-05
1.10227e-05
1.2036e-05
1.29695e-05
1.43333e-05
1.55364e-05
1.71721e-05
1.86034e-05
2.05662e-05
2.21219e-05
2.36723e-05
2.53361e-05
2.71414e-05
2.88515e-05
3.05955e-05
3.23561e-05
3.41964e-05
3.6054e-05
3.77653e-05
3.95822e-05
4.14854e-05
4.33929e-05
4.52072e-05
4.71737e-05
4.9615e-05
5.17091e-05
5.37143e-05
5.55089e-05
5.75096e-05
5.9394e-05
6.10428e-05
6.2696e-05
6.42745e-05
6.577e-05
6.70432e-05
6.8311e-05
6.95763e-05
7.06314e-05
7.17508e-05
7.25995e-05
7.35921e-05
7.45397e-05
7.53639e-05
7.62358e-05
7.71936e-05
7.8023e-05
7.89689e-05
7.96745e-05
8.05015e-05
8.12146e-05
8.17293e-05
8.22102e-05
8.27031e-05
8.30382e-05
8.34717e-05
8.37463e-05
8.41723e-05
8.45968e-05
8.49352e-05
8.52871e-05
8.56772e-05
8.59717e-05
8.61174e-05
8.61691e-05
8.6185e-05
8.60837e-05
8.58964e-05
8.57145e-05
8.56109e-05
8.55001e-05
8.53429e-05
8.5138e-05
8.49004e-05
8.45262e-05
8.40201e-05
8.33803e-05
8.26342e-05
8.1677e-05
8.05602e-05
7.92778e-05
7.80038e-05
7.6775e-05
7.57353e-05
7.47703e-05
7.38212e-05
7.27656e-05
7.16688e-05
7.0556e-05
6.96256e-05
6.8861e-05
6.81065e-05
6.70219e-05
6.57088e-05
6.43567e-05
6.31361e-05
6.20282e-05
6.10991e-05
6.02022e-05
5.94372e-05
5.89341e-05
5.86377e-05
5.82182e-05
5.76453e-05
5.7321e-05
5.69714e-05
5.6292e-05
5.61751e-05
5.61913e-05
5.66024e-05
5.76083e-05
5.87194e-05
6.01258e-05
6.19651e-05
6.39837e-05
6.61445e-05
6.82495e-05
7.03768e-05
7.26175e-05
7.44683e-05
7.68055e-05
7.90829e-05
8.17525e-05
8.40825e-05
8.66872e-05
8.9368e-05
9.23858e-05
9.46869e-05
9.842e-05
0.000102314
0.000107005
0.000111023
0.00011401
0.000115047
0.00011338
0.000108542
0.000100665
9.15944e-05
8.32218e-05
8.15806e-05
9.82915e-05
0.000164574
0.000239612
0.00028174
0.000314045
0.000317021
0.000346064
0.00032781
0.000326664
0.000329529
0.000364659
0.000355524
0.000387166
0.00034949
0.000375911
0.000361729
0.000353121
0.00034553
0.00033758
0.000330069
0.000356467
0.000331033
0.000324094
0.000335227
0.000349581
0.000325576
0.000352463
0.000334348
0.000336334
0.000322381
0.0003436
0.000334763
0.00033948
0.000376402
0.000349534
0.000342629
0.000333206
0.000326852
0.000360058
0.000345443
0.000329625
0.000320037
0.000363359
0.000359552
0.000351385
0.000336397
0.000348602
0.000339131
0.000345413
0.000354908
0.000331447
0.000332371
0.000338172
0.000318781
0.000348777
0.000346239
0.000340888
0.000329978
0.000337022
0.000338095
0.000370176
0.000344532
0.000336289
0.000351865
0.000339706
0.000335624
0.000348977
0.000340037
0.000360879
0.000355881
0.000356377
0.00032504
0.000316176
0.000324117
0.000347599
0.000348383
0.000356494
0.000337327
0.000335265
0.000318593
0.000340179
0.000331984
0.000354157
0.000351444
0.000347886