/*--------------------------------*- C++ -*----------------------------------*\
| =========                 |                                                 |
| \\      /  F ield         | foam-extend: Open Source CFD                    |
|  \\    /   O peration     | Version:     4.0                                |
|   \\  /    A nd           | Web:         http://www.foam-extend.org         |
|    \\/     M anipulation  |                                                 |
\*---------------------------------------------------------------------------*/
FoamFile
{
    version     2.0;
    format      ascii;
    class       volScalarField;
    location    "0.005";
    object      h;
}
// * * * * * * * * * * * * * * * * * * * * * * * * * * * * * * * * * * * * * //

dimensions      [0 1 0 0 0 0 0];

internalField   nonuniform List<scalar> 
176451
(
1.00034e-05
1.00007e-05
9.99665e-06
1.00003e-05
9.9994e-06
9.99916e-06
9.99927e-06
9.99939e-06
1.00018e-05
9.9983e-06
9.99957e-06
1.00043e-05
1.00007e-05
1.00007e-05
1.00019e-05
9.99886e-06
1.00024e-05
9.99662e-06
1.00018e-05
1.00002e-05
1.00005e-05
1.00005e-05
9.99929e-06
1.00004e-05
1.00013e-05
1.00001e-05
1.00018e-05
9.99955e-06
9.99849e-06
1.00002e-05
9.99855e-06
1.0002e-05
1.00005e-05
9.99793e-06
9.99923e-06
1.00016e-05
1.00007e-05
1.00025e-05
9.9989e-06
9.99926e-06
1.00016e-05
1.00035e-05
9.99899e-06
9.99855e-06
1.00011e-05
1.00002e-05
1.00005e-05
9.99892e-06
1.00018e-05
1.00012e-05
1.00073e-05
9.99867e-06
9.99894e-06
1.00007e-05
9.99836e-06
1.00004e-05
1.00007e-05
9.99999e-06
9.99721e-06
9.99823e-06
1.00014e-05
9.9995e-06
9.99686e-06
9.999e-06
9.99826e-06
1.00046e-05
9.99947e-06
1.00008e-05
1.00035e-05
9.9995e-06
9.99945e-06
1.00002e-05
9.99986e-06
1.00028e-05
1.00007e-05
1.00018e-05
9.9989e-06
1.00028e-05
1.00003e-05
9.99562e-06
9.99933e-06
1.00042e-05
9.99989e-06
9.99835e-06
9.99832e-06
9.99969e-06
9.99982e-06
9.99782e-06
1.00004e-05
1.00026e-05
1.0002e-05
9.99777e-06
1.00028e-05
1.00011e-05
9.99985e-06
9.99789e-06
9.99677e-06
1.00003e-05
1.00052e-05
9.99893e-06
1.00004e-05
9.99862e-06
1.00015e-05
9.99834e-06
1.00006e-05
9.99919e-06
1.00019e-05
1.00011e-05
9.99974e-06
1.00031e-05
1.00056e-05
9.99924e-06
1.00023e-05
9.99939e-06
1.00001e-05
1.0005e-05
1.00004e-05
9.99815e-06
1.0004e-05
1.00013e-05
9.99856e-06
9.99938e-06
9.9972e-06
9.99725e-06
1.00029e-05
1.00012e-05
9.99699e-06
1.00013e-05
9.9983e-06
1.00009e-05
1.00013e-05
1.00035e-05
9.99885e-06
1.00023e-05
1.00018e-05
1.00013e-05
1.00048e-05
9.99691e-06
1.0002e-05
9.99992e-06
9.9998e-06
9.99805e-06
1.00011e-05
1.00021e-05
9.99882e-06
1.00006e-05
9.9993e-06
9.99939e-06
1.00027e-05
9.9976e-06
1.00072e-05
1.00003e-05
9.99818e-06
9.99911e-06
9.99516e-06
1.00007e-05
9.99903e-06
9.99952e-06
1.00032e-05
9.99954e-06
1.00018e-05
1e-05
9.99934e-06
1.00007e-05
9.99645e-06
1.00022e-05
1.0001e-05
1.00012e-05
9.99677e-06
1.00031e-05
9.99701e-06
9.99825e-06
1.00038e-05
1.00003e-05
1.00011e-05
9.99849e-06
1.0004e-05
9.99873e-06
1.00015e-05
9.99737e-06
1.00014e-05
1.00008e-05
9.99754e-06
9.99862e-06
9.99827e-06
1.00001e-05
1.00007e-05
1.00002e-05
1.0003e-05
1e-05
9.99982e-06
9.99921e-06
9.99861e-06
9.99816e-06
9.998e-06
9.99819e-06
9.9987e-06
9.99933e-06
9.99996e-06
1.00005e-05
1.00009e-05
1.00012e-05
1.00015e-05
1.00017e-05
1.0002e-05
1.0002e-05
1.0002e-05
1.00017e-05
1.00012e-05
1.00005e-05
9.99972e-06
9.99914e-06
9.99881e-06
9.99873e-06
9.99889e-06
9.99923e-06
9.99963e-06
9.99993e-06
1.00001e-05
1.00002e-05
1.00002e-05
1.00001e-05
9.99997e-06
9.99981e-06
9.99972e-06
9.99967e-06
9.99973e-06
9.99992e-06
1.00002e-05
1.00004e-05
1.00005e-05
1.00005e-05
1.00005e-05
1.00005e-05
1.00006e-05
1.00007e-05
1.00009e-05
1.00011e-05
1.00013e-05
1.00014e-05
1.00014e-05
1.00011e-05
1.00008e-05
1.00005e-05
1.00002e-05
9.99992e-06
9.9998e-06
9.99966e-06
9.99953e-06
9.99944e-06
9.99948e-06
9.99957e-06
9.99983e-06
1.00002e-05
1.00008e-05
1.00013e-05
1.00017e-05
1.00018e-05
1.00017e-05
1.00014e-05
1.00008e-05
1.00002e-05
9.99979e-06
9.99958e-06
9.99964e-06
9.99989e-06
1.00003e-05
1.00006e-05
1.00006e-05
1.00004e-05
9.99999e-06
9.99958e-06
9.99937e-06
9.99946e-06
9.99988e-06
1.00003e-05
1.00006e-05
1.00005e-05
1.00002e-05
9.99975e-06
9.99933e-06
9.99915e-06
9.99933e-06
9.9997e-06
1.00001e-05
1.00004e-05
1.00005e-05
1.00004e-05
1e-05
9.99961e-06
9.99926e-06
9.99898e-06
9.99883e-06
9.99883e-06
9.999e-06
9.99922e-06
9.99944e-06
9.99966e-06
9.99994e-06
1.00002e-05
1.00003e-05
1.00004e-05
1.00004e-05
1.00003e-05
1.00002e-05
1.00001e-05
1.00001e-05
1.00002e-05
1.00003e-05
1.00004e-05
1.00004e-05
1.00003e-05
1.00001e-05
9.99976e-06
9.99946e-06
9.99918e-06
9.99898e-06
9.99894e-06
9.99913e-06
9.99942e-06
9.99971e-06
9.99998e-06
1.00003e-05
1.00005e-05
1.00006e-05
1.00008e-05
1.00008e-05
1.00008e-05
1.00005e-05
1.00002e-05
9.99976e-06
9.99932e-06
9.99897e-06
9.99874e-06
9.9987e-06
9.99877e-06
9.99896e-06
9.99922e-06
9.99942e-06
9.99955e-06
9.99962e-06
9.99967e-06
9.99966e-06
9.99968e-06
9.99975e-06
9.99984e-06
9.99983e-06
9.99977e-06
9.99971e-06
9.99972e-06
9.99978e-06
9.99991e-06
1.00001e-05
1.00003e-05
1.00004e-05
1.00006e-05
1.00008e-05
1.00011e-05
1.00014e-05
1.00014e-05
1.0001e-05
1.00003e-05
9.99931e-06
9.99832e-06
9.99768e-06
9.99754e-06
9.99785e-06
9.99851e-06
9.99931e-06
1e-05
1.00005e-05
1.00007e-05
1.00006e-05
1.00004e-05
1.00001e-05
9.99989e-06
9.99981e-06
9.99993e-06
1.00001e-05
1.00004e-05
1.00007e-05
1.00009e-05
1.00009e-05
1.00009e-05
1.00009e-05
1.00009e-05
1.00008e-05
1.00008e-05
1.00007e-05
1.00006e-05
1.00004e-05
1.00002e-05
1e-05
9.99986e-06
9.99973e-06
9.99966e-06
9.99967e-06
9.99976e-06
9.99981e-06
9.99984e-06
9.99985e-06
9.99989e-06
9.99995e-06
1.00001e-05
1.00005e-05
1.0001e-05
1.00015e-05
1.00017e-05
1.00016e-05
1.00013e-05
1.00007e-05
1.00001e-05
9.9997e-06
9.9995e-06
9.99949e-06
9.99963e-06
9.99984e-06
1.00001e-05
1.00002e-05
1.00002e-05
1.00001e-05
9.99999e-06
9.9998e-06
9.99963e-06
9.99956e-06
9.99961e-06
9.99978e-06
1.00001e-05
1.00005e-05
1.0001e-05
1.00013e-05
1.00014e-05
1.00014e-05
1.00012e-05
1.00009e-05
1.00005e-05
1.00003e-05
1.00001e-05
1e-05
9.99995e-06
9.99995e-06
1e-05
1.00001e-05
1.00002e-05
1.00003e-05
1.00002e-05
9.99994e-06
9.99968e-06
9.99945e-06
9.99927e-06
9.99912e-06
9.9991e-06
9.99915e-06
9.99925e-06
9.99934e-06
9.99956e-06
9.99995e-06
1.00005e-05
1.00011e-05
1.00017e-05
1.00023e-05
1.00027e-05
1.00028e-05
1.00028e-05
1.00026e-05
1.00022e-05
1.00014e-05
1.00005e-05
9.99959e-06
9.99875e-06
9.99803e-06
9.9977e-06
9.99779e-06
9.99822e-06
9.99882e-06
9.99948e-06
1.00001e-05
1.00005e-05
1.00007e-05
1.00007e-05
1.00008e-05
1.00008e-05
1.00009e-05
1.0001e-05
1.0001e-05
1.00007e-05
1.00002e-05
9.99954e-06
9.99897e-06
9.9986e-06
9.99853e-06
9.9988e-06
9.99925e-06
9.99966e-06
9.99986e-06
9.99985e-06
9.99965e-06
9.99932e-06
9.99896e-06
9.99874e-06
9.99873e-06
9.99893e-06
9.99932e-06
9.99985e-06
1.00003e-05
1.00007e-05
1.00009e-05
1.00009e-05
1.00009e-05
1.00007e-05
1.00005e-05
1.00004e-05
1.00003e-05
1.00003e-05
1.00001e-05
9.99999e-06
9.99985e-06
9.99967e-06
9.99948e-06
9.99945e-06
9.99956e-06
9.9998e-06
1.00001e-05
1.00005e-05
1.00009e-05
1.00011e-05
1.00012e-05
1.0001e-05
1.00005e-05
9.99988e-06
9.9992e-06
9.99873e-06
9.99861e-06
9.99886e-06
9.99938e-06
9.99986e-06
1.00002e-05
1.00002e-05
1.00001e-05
9.99987e-06
9.99967e-06
9.99962e-06
9.9997e-06
9.99979e-06
9.99988e-06
1e-05
1.00002e-05
1.00005e-05
1.00009e-05
1.00012e-05
1.00015e-05
1.00014e-05
1.0001e-05
1.00003e-05
9.99945e-06
9.9987e-06
9.99817e-06
9.99796e-06
9.998e-06
9.99815e-06
9.99838e-06
9.9987e-06
9.99917e-06
9.99977e-06
1.00005e-05
1.00013e-05
1.00018e-05
1.0002e-05
1.00017e-05
1.00011e-05
1.00004e-05
9.99979e-06
9.99953e-06
9.99968e-06
1.00001e-05
1.00006e-05
1.0001e-05
1.00012e-05
1.00011e-05
1.00007e-05
1.00001e-05
9.99939e-06
9.99872e-06
9.99817e-06
9.99789e-06
9.99795e-06
9.99835e-06
9.9989e-06
9.9995e-06
1e-05
1.00004e-05
1.00006e-05
1.00006e-05
1.00006e-05
1.00006e-05
1.00006e-05
1.00006e-05
1.00005e-05
1.00005e-05
1.00003e-05
1.00001e-05
9.99998e-06
9.99993e-06
9.9999e-06
9.99994e-06
1e-05
1.00001e-05
1.00002e-05
1.00001e-05
1.00001e-05
9.99992e-06
9.99974e-06
9.99961e-06
9.99961e-06
9.99977e-06
9.99998e-06
1.00002e-05
1.00003e-05
1.00003e-05
1e-05
9.99961e-06
9.99921e-06
9.99894e-06
9.99887e-06
9.99906e-06
9.9995e-06
1.00001e-05
1.00007e-05
1.00013e-05
1.00015e-05
1.00015e-05
1.00011e-05
1.00005e-05
9.99982e-06
9.99929e-06
9.99891e-06
9.99888e-06
9.99915e-06
9.99965e-06
1.00002e-05
1.00006e-05
1.00007e-05
1.00006e-05
1.00001e-05
9.99974e-06
9.99947e-06
9.9995e-06
9.99973e-06
1.00001e-05
1.00004e-05
1.00006e-05
1.00004e-05
1.00001e-05
9.99972e-06
9.99951e-06
9.99944e-06
9.99958e-06
9.99985e-06
1.00001e-05
1.00003e-05
1.00003e-05
1.00003e-05
1.00002e-05
1.00001e-05
1.00001e-05
1.00001e-05
1.00001e-05
1.00001e-05
1e-05
9.99997e-06
9.99998e-06
9.99993e-06
9.99991e-06
9.99981e-06
9.99975e-06
9.99966e-06
9.99967e-06
9.99979e-06
9.99998e-06
1.00002e-05
1.00003e-05
1.00003e-05
1.00002e-05
9.99999e-06
9.99993e-06
9.99998e-06
1.00001e-05
1.00002e-05
1.00003e-05
1.00003e-05
1.00002e-05
9.99984e-06
9.99959e-06
9.99947e-06
9.99949e-06
9.9996e-06
9.99973e-06
9.99987e-06
9.99997e-06
1.00001e-05
1.00002e-05
1.00004e-05
1.00006e-05
1.00008e-05
1.00008e-05
1.00006e-05
1.00002e-05
9.99986e-06
9.99962e-06
9.99956e-06
9.99978e-06
1.00002e-05
1.00007e-05
1.00011e-05
1.00012e-05
1.00011e-05
1.00009e-05
1.00006e-05
1.00002e-05
9.99991e-06
9.99973e-06
9.99956e-06
9.9993e-06
9.99897e-06
9.9987e-06
9.99851e-06
9.99857e-06
9.99883e-06
9.99927e-06
9.99981e-06
1.00003e-05
1.00007e-05
1.00007e-05
1.00006e-05
1.00003e-05
1e-05
9.99979e-06
9.99972e-06
9.99982e-06
1e-05
1.00002e-05
1.00003e-05
1.00004e-05
1.00004e-05
1.00002e-05
1.00001e-05
9.99999e-06
1e-05
1e-05
1.00001e-05
1.00001e-05
1.00002e-05
1.00001e-05
1e-05
9.99998e-06
1e-05
1e-05
1e-05
1e-05
1.00001e-05
9.99999e-06
9.9999e-06
9.99988e-06
9.99991e-06
9.99993e-06
9.99995e-06
9.99999e-06
1e-05
9.99996e-06
9.99984e-06
9.99973e-06
9.99963e-06
9.9995e-06
9.99941e-06
9.99944e-06
9.99959e-06
9.9998e-06
1.00001e-05
1.00003e-05
1.00006e-05
1.00007e-05
1.00006e-05
1.00005e-05
1.00004e-05
1.00002e-05
1e-05
9.99989e-06
9.9998e-06
9.99968e-06
9.99953e-06
9.99942e-06
9.99939e-06
9.99941e-06
9.99955e-06
9.99981e-06
1.00002e-05
1.00004e-05
1.00006e-05
1.00007e-05
1.00008e-05
1.00007e-05
1.00006e-05
1.00005e-05
1.00004e-05
1.00003e-05
1.00002e-05
1e-05
1e-05
1.00001e-05
1.00002e-05
1.00004e-05
1.00005e-05
1.00005e-05
1.00003e-05
1e-05
9.9998e-06
9.9996e-06
9.99951e-06
9.99954e-06
9.99963e-06
9.9997e-06
9.99975e-06
9.99979e-06
9.99976e-06
9.9997e-06
9.99973e-06
9.99986e-06
1e-05
1.00001e-05
1.00001e-05
1.00001e-05
9.99998e-06
9.99983e-06
9.99976e-06
9.99977e-06
9.99993e-06
1.00001e-05
1.00004e-05
1.00006e-05
1.00006e-05
1.00005e-05
1.00004e-05
1.00002e-05
1.00002e-05
1.00002e-05
1.00003e-05
1.00004e-05
1.00005e-05
1.00004e-05
1.00003e-05
1.00002e-05
1.00001e-05
9.99987e-06
9.99971e-06
9.99959e-06
9.99954e-06
9.99949e-06
9.99955e-06
9.9997e-06
9.9999e-06
1.00001e-05
1.00002e-05
1.00003e-05
1.00003e-05
1.00003e-05
1.00001e-05
1e-05
9.99996e-06
9.99995e-06
1e-05
1.00001e-05
1.00001e-05
1e-05
9.99998e-06
9.99996e-06
9.99992e-06
9.99992e-06
9.99992e-06
9.99995e-06
9.99994e-06
9.99989e-06
9.9999e-06
9.99999e-06
1.00002e-05
1.00004e-05
1.00005e-05
1.00006e-05
1.00006e-05
1.00004e-05
1.00003e-05
1.00002e-05
1e-05
9.99991e-06
9.99983e-06
9.99982e-06
9.99984e-06
9.99988e-06
9.99995e-06
1e-05
1.00002e-05
1.00002e-05
1.00003e-05
1.00003e-05
1.00002e-05
1.00002e-05
1e-05
9.99994e-06
9.99985e-06
9.99973e-06
9.99965e-06
9.99964e-06
9.99967e-06
9.99968e-06
9.99975e-06
9.99987e-06
1e-05
1.00002e-05
1.00004e-05
1.00005e-05
1.00005e-05
1.00004e-05
1.00003e-05
1.00001e-05
9.99999e-06
9.99985e-06
9.99971e-06
9.99962e-06
9.9996e-06
9.99964e-06
9.99966e-06
9.99969e-06
9.99977e-06
9.99988e-06
9.99997e-06
1.00001e-05
1.00002e-05
1.00003e-05
1.00003e-05
1.00003e-05
1.00002e-05
1.00002e-05
1.00001e-05
1.00001e-05
1.00001e-05
1.00001e-05
1.00001e-05
1e-05
9.99994e-06
9.99995e-06
9.99998e-06
1.00001e-05
1.00002e-05
1.00003e-05
1.00004e-05
1.00003e-05
1.00003e-05
1.00003e-05
1.00003e-05
1.00002e-05
1.00002e-05
1.00002e-05
1.00002e-05
1.00002e-05
1.00002e-05
1.00002e-05
1.00002e-05
1.00002e-05
1.00001e-05
1.00001e-05
9.99999e-06
9.99988e-06
9.99985e-06
9.9999e-06
9.99997e-06
1e-05
1.00001e-05
1.00001e-05
1.00001e-05
1e-05
9.99996e-06
9.99997e-06
9.99996e-06
9.99996e-06
9.99998e-06
1e-05
9.99999e-06
9.99998e-06
1e-05
1.00002e-05
1.00003e-05
1.00003e-05
1.00004e-05
1.00003e-05
1.00002e-05
1.00001e-05
1e-05
9.99999e-06
1e-05
1.00001e-05
1.00003e-05
1.00004e-05
1.00004e-05
1.00004e-05
1.00003e-05
1.00003e-05
1.00003e-05
1.00002e-05
1.00001e-05
1.00001e-05
9.99993e-06
9.99979e-06
9.99974e-06
9.9998e-06
9.99995e-06
1.00002e-05
1.00004e-05
1.00006e-05
1.00006e-05
1.00006e-05
1.00004e-05
1.00002e-05
9.99988e-06
9.99972e-06
9.99966e-06
9.99973e-06
9.99985e-06
1e-05
1.00002e-05
1.00003e-05
1.00004e-05
1.00003e-05
1.00003e-05
1.00002e-05
1.00001e-05
1.00001e-05
1.00001e-05
1.00002e-05
1.00003e-05
1.00003e-05
1.00002e-05
1.00001e-05
1e-05
9.99998e-06
9.99999e-06
1.00001e-05
1.00001e-05
1.00002e-05
1.00003e-05
1.00004e-05
1.00004e-05
1.00004e-05
1.00004e-05
1.00003e-05
1.00002e-05
1.00002e-05
1.00002e-05
1.00002e-05
1.00001e-05
1.00001e-05
1.00001e-05
1.00001e-05
1.00001e-05
1.00001e-05
1.00001e-05
1.00001e-05
1.00001e-05
1.00002e-05
1.00002e-05
1.00002e-05
1.00002e-05
1.00001e-05
1.00001e-05
1.00001e-05
1.00001e-05
1.00001e-05
1.00002e-05
1.00002e-05
1.00001e-05
1.00001e-05
1.00001e-05
1.00001e-05
1.00001e-05
1.00002e-05
1.00003e-05
1.00004e-05
1.00004e-05
1.00004e-05
1.00003e-05
1.00003e-05
1.00002e-05
1.00001e-05
1.00001e-05
1e-05
9.99998e-06
9.99999e-06
1e-05
1.00001e-05
1.00001e-05
1.00002e-05
1.00002e-05
1.00002e-05
1.00001e-05
1e-05
9.99996e-06
9.99995e-06
1e-05
1.00002e-05
1.00003e-05
1.00003e-05
1.00003e-05
1.00002e-05
1.00001e-05
1e-05
9.99999e-06
1e-05
1.00001e-05
1.00002e-05
1.00002e-05
1.00002e-05
1.00002e-05
1.00002e-05
1.00002e-05
1.00001e-05
1.00001e-05
1.00001e-05
1.00001e-05
1.00001e-05
1.00001e-05
1.00001e-05
1.00001e-05
1.00001e-05
1e-05
1e-05
9.99999e-06
9.99993e-06
9.99988e-06
9.99989e-06
9.99999e-06
1.00001e-05
1.00002e-05
1.00003e-05
1.00004e-05
1.00004e-05
1.00003e-05
1.00003e-05
1.00002e-05
1.00002e-05
1.00001e-05
1.00001e-05
1.00001e-05
1.00001e-05
1.00001e-05
1.00001e-05
1.00001e-05
1e-05
1e-05
1e-05
1.00001e-05
1.00001e-05
1e-05
1e-05
1e-05
1e-05
1.00001e-05
1.00001e-05
1.00002e-05
1.00002e-05
1.00001e-05
1.00001e-05
1e-05
1e-05
9.99999e-06
1e-05
1.00001e-05
1.00001e-05
1.00001e-05
1.00001e-05
1.00001e-05
1.00001e-05
9.99999e-06
9.99999e-06
1.00001e-05
1.00001e-05
1.00002e-05
1.00002e-05
1.00002e-05
1.00002e-05
1.00001e-05
1.00001e-05
1.00001e-05
9.99998e-06
9.99991e-06
9.99992e-06
1e-05
1.00001e-05
1.00001e-05
1.00002e-05
1.00002e-05
1.00001e-05
1e-05
9.99998e-06
1e-05
1e-05
1.00001e-05
1.00002e-05
1.00002e-05
1.00002e-05
1.00001e-05
1.00001e-05
1.00001e-05
1.00001e-05
1.00001e-05
1.00001e-05
1.00001e-05
1.00001e-05
1e-05
9.99998e-06
1e-05
1e-05
1e-05
1e-05
1.00001e-05
1.00001e-05
1.00001e-05
1e-05
1e-05
9.99994e-06
9.9999e-06
9.9999e-06
9.99993e-06
9.99991e-06
9.9999e-06
9.9999e-06
9.99993e-06
9.99992e-06
9.99991e-06
9.99992e-06
9.99999e-06
1e-05
1.00001e-05
1.00001e-05
1.00002e-05
1.00002e-05
1.00002e-05
1.00001e-05
1.00001e-05
9.99998e-06
9.99994e-06
9.99991e-06
9.99994e-06
9.99994e-06
9.99995e-06
9.99999e-06
1.00001e-05
1.00001e-05
1.00001e-05
1.00001e-05
1.00001e-05
1.00001e-05
1.00001e-05
1e-05
9.99996e-06
9.99992e-06
9.99992e-06
9.99992e-06
9.99995e-06
9.99992e-06
9.99989e-06
9.99989e-06
9.99995e-06
9.99999e-06
1.00001e-05
1.00001e-05
1.00001e-05
1.00001e-05
1.00001e-05
1.00001e-05
1.00001e-05
1.00001e-05
1.00001e-05
1.00001e-05
1.00001e-05
1e-05
1e-05
1e-05
1e-05
1e-05
9.99999e-06
9.99994e-06
9.99991e-06
9.99987e-06
9.99989e-06
9.99992e-06
9.99996e-06
9.99995e-06
9.99996e-06
9.99997e-06
1e-05
9.99997e-06
9.99995e-06
9.99996e-06
9.99998e-06
9.99997e-06
9.99997e-06
9.99994e-06
9.99994e-06
9.99991e-06
9.99991e-06
9.99994e-06
9.99997e-06
9.99998e-06
1e-05
1.00001e-05
1.00001e-05
1.00001e-05
1.00001e-05
1e-05
9.99995e-06
9.99992e-06
9.99986e-06
9.99982e-06
9.99986e-06
9.99995e-06
1e-05
1e-05
1e-05
1e-05
9.99998e-06
9.99991e-06
9.99988e-06
9.99989e-06
9.99988e-06
9.99986e-06
9.99986e-06
9.99989e-06
9.99988e-06
9.99985e-06
9.99985e-06
9.99989e-06
9.99991e-06
9.99993e-06
9.99996e-06
1e-05
1e-05
9.99996e-06
9.99994e-06
9.99994e-06
9.99992e-06
9.99989e-06
9.9999e-06
9.99993e-06
9.99993e-06
9.99992e-06
9.99992e-06
9.99995e-06
9.99993e-06
9.9999e-06
9.99989e-06
9.99993e-06
9.99994e-06
9.99995e-06
9.99998e-06
1e-05
1e-05
9.99997e-06
9.99994e-06
9.99994e-06
9.99992e-06
9.99991e-06
9.99994e-06
9.99997e-06
9.99994e-06
9.9999e-06
9.99991e-06
9.99996e-06
9.99995e-06
9.99991e-06
9.99988e-06
9.99989e-06
9.99989e-06
9.99989e-06
9.99992e-06
9.99997e-06
9.99996e-06
9.99992e-06
9.9999e-06
9.9999e-06
9.99989e-06
9.99988e-06
9.9999e-06
9.99995e-06
9.99996e-06
9.99994e-06
9.99993e-06
9.99995e-06
9.99993e-06
9.9999e-06
9.9999e-06
9.99992e-06
9.99991e-06
9.99988e-06
9.99987e-06
9.9999e-06
9.9999e-06
9.99989e-06
9.9999e-06
9.99994e-06
9.99996e-06
9.99997e-06
9.99999e-06
1e-05
9.99997e-06
9.99995e-06
9.99992e-06
9.99994e-06
9.99992e-06
9.99989e-06
9.99983e-06
9.99983e-06
9.99987e-06
9.99994e-06
1e-05
1.00001e-05
1.00001e-05
1.00001e-05
1e-05
1e-05
9.99997e-06
9.99993e-06
9.99989e-06
9.99993e-06
9.99997e-06
1e-05
1.00001e-05
1.00001e-05
1.00001e-05
1e-05
9.99994e-06
9.99993e-06
9.9999e-06
9.9999e-06
9.99989e-06
9.99993e-06
9.99994e-06
9.99997e-06
9.99997e-06
1e-05
9.99999e-06
9.99996e-06
9.99991e-06
9.99992e-06
9.99994e-06
9.99998e-06
1e-05
1.00001e-05
1.00001e-05
1.00001e-05
1.00001e-05
1.00001e-05
1.00001e-05
1.00001e-05
1.00001e-05
1.00001e-05
1e-05
1e-05
1e-05
1.00001e-05
1.00001e-05
1e-05
9.99996e-06
9.99995e-06
9.99992e-06
9.99996e-06
9.99999e-06
1.00001e-05
1.00001e-05
1e-05
9.99994e-06
9.99989e-06
9.99983e-06
9.99983e-06
9.99987e-06
9.99995e-06
1e-05
1.00001e-05
1.00001e-05
1.00001e-05
1.00001e-05
1e-05
1e-05
1e-05
9.99996e-06
9.99988e-06
9.99981e-06
9.99977e-06
9.99972e-06
9.99976e-06
9.99986e-06
9.99997e-06
1.00001e-05
1.00001e-05
1.00001e-05
1.00001e-05
1.00001e-05
9.99993e-06
9.99984e-06
9.99981e-06
9.99986e-06
9.99994e-06
9.99997e-06
1e-05
1.00001e-05
1.00001e-05
1e-05
1e-05
1e-05
9.99994e-06
9.99988e-06
9.99988e-06
9.99992e-06
9.99994e-06
9.99994e-06
9.99995e-06
9.99999e-06
9.99998e-06
9.99996e-06
9.99994e-06
9.99993e-06
9.99989e-06
9.99985e-06
9.99986e-06
9.99993e-06
9.99998e-06
1e-05
1e-05
1.00001e-05
1e-05
9.99998e-06
9.99995e-06
9.99995e-06
9.99992e-06
9.99989e-06
9.99989e-06
9.99993e-06
9.99993e-06
9.99992e-06
9.99993e-06
9.99996e-06
9.99995e-06
9.99993e-06
9.99992e-06
9.99993e-06
9.99991e-06
9.9999e-06
9.9999e-06
9.99994e-06
9.99993e-06
9.99988e-06
9.99983e-06
9.9998e-06
9.99972e-06
9.99966e-06
9.99967e-06
9.99977e-06
9.99987e-06
1e-05
1.00002e-05
1.00006e-05
1.00012e-05
1.0002e-05
1.00031e-05
1.00041e-05
1.00042e-05
1.00024e-05
9.99845e-06
9.99203e-06
9.98494e-06
9.97956e-06
9.97842e-06
9.98406e-06
9.99691e-06
1.00163e-05
1.004e-05
1.0068e-05
1.00954e-05
1.01206e-05
1.01426e-05
1.01595e-05
1.01678e-05
1.0164e-05
1.01439e-05
1.0097e-05
1.00275e-05
9.93638e-06
9.82193e-06
9.66799e-06
9.48703e-06
9.27969e-06
9.05457e-06
8.83072e-06
8.68386e-06
8.68636e-06
8.90652e-06
9.45659e-06
1.03071e-05
1.1408e-05
1.28394e-05
1.43922e-05
1.60986e-05
1.77785e-05
1.95573e-05
2.11119e-05
2.27631e-05
2.42231e-05
2.56855e-05
2.69352e-05
2.82391e-05
2.93536e-05
3.04388e-05
3.13396e-05
3.21804e-05
3.29486e-05
3.36047e-05
3.41062e-05
3.45362e-05
3.4873e-05
3.50703e-05
3.51369e-05
3.51175e-05
3.50581e-05
3.48914e-05
3.46512e-05
3.43387e-05
3.40193e-05
3.36161e-05
3.32095e-05
3.27508e-05
3.22637e-05
3.15998e-05
3.08238e-05
2.98768e-05
2.88793e-05
2.77483e-05
2.6651e-05
2.54984e-05
2.44095e-05
2.32108e-05
2.19868e-05
2.05726e-05
1.90875e-05
1.74238e-05
1.5807e-05
1.41412e-05
1.25645e-05
1.09287e-05
9.71195e-06
1.00439e-05
1.365e-05
2.01503e-05
2.70136e-05
3.31631e-05
3.60884e-05
3.45067e-05
2.86337e-05
2.4171e-05
3.14591e-05
4.58588e-05
5.60013e-05
6.33323e-05
6.92056e-05
7.25416e-05
7.38083e-05
7.41609e-05
7.40499e-05
7.36075e-05
7.26621e-05
7.14173e-05
7.0079e-05
6.90575e-05
6.81403e-05
6.73584e-05
6.69018e-05
6.66927e-05
6.67646e-05
6.69623e-05
6.72031e-05
6.75587e-05
6.78925e-05
6.82747e-05
6.8588e-05
6.88663e-05
6.90935e-05
6.9195e-05
6.93207e-05
6.93191e-05
6.93067e-05
6.92666e-05
6.92501e-05
6.9169e-05
6.90864e-05
6.9013e-05
6.89615e-05
6.89162e-05
6.89371e-05
6.89345e-05
6.89156e-05
6.8915e-05
6.89113e-05
6.88669e-05
6.88265e-05
6.88052e-05
6.8773e-05
6.87126e-05
6.86627e-05
6.86404e-05
6.86184e-05
6.85731e-05
6.85443e-05
6.85493e-05
6.85605e-05
6.85467e-05
6.85485e-05
6.85809e-05
6.86156e-05
6.86225e-05
6.8642e-05
6.86892e-05
6.87319e-05
6.87374e-05
6.87487e-05
6.87821e-05
6.88053e-05
6.87883e-05
6.87771e-05
6.87891e-05
6.87942e-05
6.87625e-05
6.87381e-05
6.87391e-05
6.87376e-05
6.87037e-05
6.86815e-05
6.8687e-05
6.86921e-05
6.86642e-05
6.86489e-05
6.8665e-05
6.86822e-05
6.86591e-05
6.86532e-05
6.8685e-05
6.87138e-05
6.86859e-05
6.86719e-05
6.86932e-05
6.87178e-05
6.87142e-05
6.87217e-05
6.87515e-05
6.87682e-05
6.87401e-05
6.871e-05
6.86965e-05
6.8678e-05
6.86348e-05
6.86226e-05
6.86699e-05
6.87545e-05
6.88415e-05
6.89641e-05
6.91203e-05
6.92404e-05
6.92631e-05
6.92166e-05
6.91073e-05
6.89114e-05
6.86301e-05
6.83555e-05
6.81605e-05
6.80897e-05
6.81521e-05
6.84095e-05
6.88694e-05
6.94038e-05
6.98576e-05
7.01942e-05
7.03488e-05
7.01749e-05
6.95958e-05
6.87491e-05
6.78809e-05
6.7274e-05
6.70879e-05
6.75498e-05
6.89092e-05
7.09461e-05
7.29172e-05
7.42028e-05
7.45975e-05
7.32924e-05
6.7952e-05
5.61498e-05
3.89653e-05
2.61111e-05
2.36175e-05
2.58933e-05
2.75016e-05
2.81615e-05
2.88379e-05
2.89667e-05
2.77676e-05
2.56554e-05
2.38157e-05
2.30348e-05
2.27467e-05
2.28313e-05
2.34426e-05
2.44857e-05
2.54516e-05
2.6138e-05
2.65698e-05
2.69126e-05
2.71136e-05
2.70352e-05
2.66676e-05
2.60748e-05
2.54382e-05
2.46917e-05
2.39165e-05
2.30536e-05
2.22009e-05
2.12998e-05
2.05538e-05
1.99795e-05
1.97293e-05
1.97139e-05
1.99411e-05
2.03935e-05
2.09605e-05
2.15402e-05
2.20545e-05
2.25432e-05
2.2993e-05
2.33378e-05
2.35807e-05
2.37759e-05
2.39745e-05
2.40963e-05
2.41081e-05
2.42736e-05
2.4131e-05
2.40192e-05
2.37498e-05
2.35828e-05
2.3159e-05
2.28286e-05
2.24063e-05
2.19482e-05
2.14113e-05
2.08115e-05
2.01309e-05
1.92682e-05
1.85585e-05
1.77733e-05
1.69564e-05
1.61713e-05
1.53316e-05
1.44784e-05
1.36403e-05
1.27254e-05
1.18642e-05
1.10599e-05
1.03293e-05
9.70618e-06
9.22588e-06
8.90267e-06
8.74632e-06
8.70946e-06
8.79052e-06
8.95109e-06
9.16909e-06
9.39865e-06
9.62463e-06
9.82199e-06
9.97227e-06
1.00867e-05
1.01596e-05
1.01913e-05
1.01963e-05
1.0182e-05
1.01534e-05
1.0116e-05
1.00799e-05
1.00451e-05
1.00158e-05
9.99571e-06
9.98242e-06
9.97587e-06
9.97538e-06
9.97895e-06
9.98457e-06
9.99094e-06
9.99654e-06
1.00008e-05
1.00031e-05
1.00038e-05
1.00032e-05
1.0002e-05
1.00007e-05
9.99983e-06
9.9994e-06
9.99938e-06
9.99963e-06
9.99992e-06
1.00001e-05
1e-05
9.99995e-06
9.99987e-06
9.99982e-06
9.99982e-06
9.99992e-06
1.00001e-05
1.00003e-05
1.00004e-05
1.00004e-05
1.00004e-05
1.00003e-05
1.00001e-05
1.00001e-05
1.00002e-05
1.00002e-05
1.00002e-05
1.00001e-05
1.00001e-05
1e-05
9.99997e-06
1.00001e-05
1.00003e-05
1.00005e-05
1.00006e-05
1.00006e-05
1.00006e-05
1.00004e-05
1.00003e-05
1.00001e-05
1e-05
9.99997e-06
9.99996e-06
1e-05
1.00001e-05
1.00002e-05
1.00003e-05
1.00003e-05
1.00002e-05
1.00001e-05
9.99994e-06
9.99975e-06
9.9996e-06
9.99946e-06
9.99939e-06
9.99946e-06
9.99967e-06
9.99989e-06
1.00001e-05
1.00002e-05
1.00003e-05
1.00003e-05
1.00002e-05
1.00001e-05
1.00001e-05
1.00001e-05
1.00001e-05
1.00002e-05
1.00003e-05
1.00003e-05
1.00003e-05
1.00002e-05
1.00002e-05
1.00001e-05
1.00001e-05
1e-05
1.00001e-05
1.00002e-05
1.00002e-05
1.00002e-05
1.00002e-05
1.00001e-05
9.9999e-06
9.99973e-06
9.99963e-06
9.99958e-06
9.99958e-06
9.99963e-06
9.99973e-06
9.99978e-06
9.99983e-06
9.99992e-06
1.00001e-05
1.00004e-05
1.00008e-05
1.00011e-05
1.00012e-05
1.00011e-05
1.00007e-05
1.00002e-05
9.99985e-06
9.99959e-06
9.99946e-06
9.99943e-06
9.99954e-06
9.99972e-06
9.99994e-06
1.00001e-05
1.00003e-05
1.00004e-05
1.00004e-05
1.00003e-05
1.00002e-05
1.00001e-05
9.99999e-06
1.00001e-05
1.00002e-05
1.00004e-05
1.00006e-05
1.00007e-05
1.00006e-05
1.00005e-05
1.00002e-05
9.99982e-06
9.99955e-06
9.99935e-06
9.99935e-06
9.9995e-06
9.99984e-06
1.00002e-05
1.00005e-05
1.00006e-05
1.00006e-05
1.00004e-05
1.00002e-05
9.99997e-06
9.99975e-06
9.99947e-06
9.99928e-06
9.99913e-06
9.99913e-06
9.9992e-06
9.99937e-06
9.99961e-06
9.99983e-06
1.00001e-05
1.00003e-05
1.00004e-05
1.00004e-05
1.00003e-05
1.00001e-05
9.99988e-06
9.99971e-06
9.9997e-06
9.99991e-06
1.00002e-05
1.00006e-05
1.00008e-05
1.00009e-05
1.00007e-05
1.00005e-05
1.00003e-05
1.00001e-05
9.99996e-06
9.99988e-06
9.99991e-06
9.99996e-06
9.99997e-06
9.99995e-06
9.99994e-06
1e-05
1e-05
1e-05
9.99997e-06
9.99991e-06
9.99988e-06
9.99984e-06
9.99982e-06
9.99983e-06
9.9999e-06
9.99997e-06
1e-05
1.00001e-05
1.00001e-05
1.00001e-05
9.99999e-06
9.99988e-06
9.9998e-06
9.99977e-06
9.99981e-06
9.99991e-06
1e-05
1.00001e-05
1.00001e-05
1e-05
9.99995e-06
9.99989e-06
9.9999e-06
9.99997e-06
1.00001e-05
1.00001e-05
9.99995e-06
9.99979e-06
9.99971e-06
9.99968e-06
9.99971e-06
9.99976e-06
9.99984e-06
9.99988e-06
9.99989e-06
9.99986e-06
9.99985e-06
9.99983e-06
9.99984e-06
9.99987e-06
9.99994e-06
9.99996e-06
9.99995e-06
9.99992e-06
9.99993e-06
9.99996e-06
1e-05
1e-05
9.99998e-06
9.99986e-06
9.99974e-06
9.99967e-06
9.99968e-06
9.99972e-06
9.9998e-06
9.99987e-06
9.99998e-06
1e-05
1e-05
9.99995e-06
9.99989e-06
9.99988e-06
9.99998e-06
1.00001e-05
1.00001e-05
1e-05
9.99982e-06
9.99973e-06
9.99972e-06
9.9998e-06
9.99988e-06
1e-05
1.00001e-05
1.00002e-05
1.00001e-05
1.00001e-05
1.00001e-05
1.00001e-05
9.99998e-06
9.99991e-06
9.99988e-06
9.99985e-06
9.99981e-06
9.99983e-06
9.99984e-06
9.99989e-06
9.99994e-06
1e-05
1.00001e-05
1.00002e-05
1.00002e-05
1.00002e-05
1.00002e-05
1.00001e-05
1e-05
1e-05
1e-05
1e-05
9.99996e-06
9.99995e-06
1e-05
1.00001e-05
1.00001e-05
1.00001e-05
9.99995e-06
9.99985e-06
9.99978e-06
9.99983e-06
9.99994e-06
1.00001e-05
1.00002e-05
1.00002e-05
1.00002e-05
1.00001e-05
9.99998e-06
9.99991e-06
9.99993e-06
1e-05
1.00001e-05
1.00001e-05
1.00001e-05
1e-05
9.99996e-06
9.99996e-06
9.99996e-06
9.99995e-06
9.99993e-06
9.99996e-06
9.99999e-06
1e-05
9.99999e-06
1e-05
1e-05
1e-05
9.99999e-06
1e-05
1.00001e-05
1.00002e-05
1.00003e-05
1.00006e-05
1.00007e-05
9.99997e-06
9.99716e-06
9.99124e-06
9.98531e-06
9.98723e-06
1.00068e-05
1.00539e-05
1.01136e-05
1.01595e-05
1.01421e-05
1.0007e-05
9.76059e-06
9.38167e-06
9.0191e-06
8.70848e-06
8.71161e-06
9.25959e-06
1.02222e-05
1.19541e-05
1.38013e-05
1.59516e-05
1.84547e-05
2.12613e-05
2.40807e-05
2.69566e-05
2.98479e-05
3.27822e-05
3.57167e-05
3.84169e-05
4.12223e-05
4.40721e-05
4.68562e-05
4.93983e-05
5.19899e-05
5.49905e-05
5.73832e-05
5.95166e-05
6.12787e-05
6.321e-05
6.49577e-05
6.64454e-05
6.79505e-05
6.94122e-05
7.08167e-05
7.20317e-05
7.32505e-05
7.44526e-05
7.54335e-05
7.64106e-05
7.70532e-05
7.76707e-05
7.81044e-05
7.83442e-05
7.8477e-05
7.85436e-05
7.83936e-05
7.81816e-05
7.76588e-05
7.70577e-05
7.63141e-05
7.55414e-05
7.4667e-05
7.36512e-05
7.23805e-05
7.1009e-05
6.95912e-05
6.83664e-05
6.73369e-05
6.64402e-05
6.54204e-05
6.441e-05
6.35207e-05
6.272e-05
6.18482e-05
6.09654e-05
5.99934e-05
5.90527e-05
5.84801e-05
5.8292e-05
5.83124e-05
5.862e-05
5.94235e-05
6.0162e-05
6.07859e-05
6.12742e-05
6.18003e-05
6.20196e-05
6.24035e-05
6.27741e-05
6.33438e-05
6.38609e-05
6.4866e-05
6.59056e-05
6.7428e-05
6.91751e-05
7.17568e-05
7.46167e-05
7.81774e-05
8.21172e-05
8.71096e-05
9.2216e-05
9.75576e-05
0.000102549
0.00010748
0.000111244
0.000113603
0.000114354
0.000112234
0.000109376
0.000104072
9.90402e-05
9.32831e-05
8.6822e-05
8.03906e-05
8.17062e-05
9.75824e-05
0.000138406
0.000218967
0.000268446
0.000300192
0.000299942
0.000324922
0.000344948
0.000367474
0.000335334
0.000352754
0.000360032
0.000355671
0.000356739
0.000378137
0.000348087
0.000357138
0.000350577
0.000373469
0.000345876
0.000348042
0.000352045
0.000347044
0.000348715
0.000369826
0.000379346
0.000328437
0.000351785
0.000337626
0.000334843
0.000345241
0.000334655
0.000363586
0.00036183
0.000347253
0.000363829
0.000348138
0.00033926
0.000343642
0.000340609
0.000333723
0.00031851
0.000339444
0.000318453
0.000372065
0.000370439
0.000343953
0.000342694
0.00033149
0.000345055
0.000346231
0.000377416
0.000353795
0.000352133
0.000365582
0.000352699
0.000359307
0.000374454
0.000344469
0.000328116
0.000354789
0.000398129
0.000341916
0.000318032
0.000332717
0.000356206
0.000334405
0.000364217
0.000355974
0.000339131
0.000328494
0.000329772
0.000346364
0.000351012
0.000334181
0.000322831
0.000355174
0.000344447
0.000336491
0.000334446
0.000325864
0.000326306
0.000356788
0.000350561
0.000343054
0.000367383
0.000345506
0.000339488
0.000352376
0.000365695
0.000344258
0.000327982
0.000349479
0.000335553
0.000342886
0.000337266
0.000363988
0.000335354
0.000344059
0.000338014
0.000335675
0.00034419
0.000327585
0.000320044
0.000339899
0.000333667
0.000337921
0.000335819
0.000348418
0.000335785
0.000326861
0.000321954
0.000330073
0.000326625
0.000317335
0.000315683
0.000358402
0.000366767
0.000336846
0.00033672
0.00033605
0.000366964
0.000344683
0.00034543
0.000341354
0.000347565
0.000343015
0.000346541
0.000343852
0.000385358
0.000400514
0.000379728
0.000361969
0.000341692
0.000312507
0.000313841
0.000286341
0.000254996
0.000184493
7.9148e-05
5.1693e-05
4.80755e-05
5.45306e-05
6.71788e-05
7.92421e-05
9.16191e-05
0.000100573
0.000106585
0.000109446
0.000110976
0.000110003
0.000108356
0.00010577
0.000102777
9.94475e-05
9.55842e-05
9.19611e-05
8.84028e-05
8.51562e-05
8.15072e-05
7.84314e-05
7.52658e-05
7.28514e-05
7.0145e-05
6.81988e-05
6.59602e-05
6.44636e-05
6.25405e-05
6.13123e-05
6.00767e-05
5.96193e-05
5.90615e-05
5.89839e-05
5.88801e-05
5.92462e-05
5.95559e-05
6.00301e-05
6.05814e-05
6.12853e-05