/*--------------------------------*- C++ -*----------------------------------*\
| =========                 |                                                 |
| \\      /  F ield         | foam-extend: Open Source CFD                    |
|  \\    /   O peration     | Version:     4.0                                |
|   \\  /    A nd           | Web:         http://www.foam-extend.org         |
|    \\/     M anipulation  |                                                 |
\*---------------------------------------------------------------------------*/
FoamFile
{
    version     2.0;
    format      ascii;
    class       volScalarField;
    location    "0.02";
    object      h;
}
// * * * * * * * * * * * * * * * * * * * * * * * * * * * * * * * * * * * * * //

dimensions      [0 1 0 0 0 0 0];

internalField   nonuniform List<scalar> 
176451
(
1.00035e-05
9.99626e-06
9.99293e-06
9.99709e-06
1.0001e-05
1.00025e-05
9.99773e-06
9.99934e-06
1.00003e-05
1.00016e-05
1.00043e-05
1.00066e-05
1.00009e-05
9.99662e-06
9.99792e-06
9.9959e-06
1.00005e-05
1.00023e-05
1.00048e-05
9.9976e-06
1.00007e-05
1.00008e-05
1.00002e-05
1.00025e-05
1.00044e-05
1.00024e-05
1.0001e-05
9.99894e-06
9.99783e-06
1.00012e-05
9.99654e-06
1.00013e-05
9.9996e-06
9.99429e-06
9.99947e-06
1.00076e-05
1.00029e-05
1.00008e-05
9.99752e-06
9.99599e-06
1.00005e-05
1.00029e-05
9.99678e-06
9.99984e-06
1.00005e-05
1.00007e-05
9.99931e-06
1.00001e-05
1.00043e-05
1.00016e-05
1.00019e-05
9.99881e-06
9.99817e-06
9.99795e-06
1.0002e-05
1.00026e-05
1.00013e-05
9.99938e-06
9.99778e-06
1.0002e-05
1.00028e-05
9.9959e-06
9.99561e-06
1.00011e-05
9.99999e-06
1.00035e-05
1.00031e-05
1.00007e-05
1.00004e-05
9.9982e-06
1.00004e-05
1.00016e-05
9.99934e-06
1.00043e-05
1.00009e-05
1.00017e-05
9.99941e-06
1.00006e-05
9.99816e-06
9.99409e-06
9.9988e-06
1.00069e-05
9.99586e-06
9.99891e-06
1.00002e-05
9.99847e-06
1.00027e-05
1.00031e-05
1.00008e-05
1.00008e-05
1.00033e-05
1.00007e-05
1.00026e-05
9.99951e-06
9.99775e-06
9.99683e-06
9.99777e-06
1.00018e-05
1.0004e-05
9.99725e-06
1.00009e-05
1.00001e-05
1.00015e-05
9.99874e-06
1.00013e-05
9.99903e-06
1.00018e-05
1.00049e-05
1.00039e-05
1.00026e-05
1.00038e-05
1.00016e-05
1.00008e-05
1.00014e-05
1.00014e-05
1.00049e-05
1.00033e-05
9.99993e-06
1.00034e-05
1.00015e-05
9.9988e-06
9.99509e-06
9.99701e-06
9.99671e-06
1.0002e-05
1.00015e-05
9.99865e-06
1.00012e-05
9.99939e-06
1.00029e-05
1.00012e-05
1.00012e-05
1.00007e-05
1.00031e-05
1.00001e-05
9.99901e-06
1.00043e-05
9.99672e-06
1.00003e-05
1.00003e-05
9.99886e-06
9.99809e-06
1.00043e-05
1.00027e-05
9.99518e-06
9.99694e-06
1.00016e-05
1.00013e-05
9.99934e-06
9.99957e-06
1.00039e-05
9.99954e-06
9.99791e-06
9.99972e-06
9.9972e-06
1.00012e-05
1.00003e-05
9.99755e-06
1.0003e-05
1.00009e-05
9.9996e-06
9.99951e-06
9.99627e-06
9.9998e-06
1.00002e-05
1.00035e-05
1.0001e-05
1.00005e-05
9.99878e-06
1.0001e-05
9.99678e-06
9.99911e-06
1.00058e-05
1.00002e-05
9.99743e-06
9.99857e-06
1.00048e-05
9.9943e-06
1.00041e-05
1.00025e-05
1.00012e-05
1.00009e-05
9.9967e-06
1.00015e-05
9.99685e-06
9.99864e-06
1.00015e-05
1.00073e-05
1.00061e-05
1.00015e-05
9.99811e-06
9.99248e-06
9.98683e-06
9.98218e-06
9.97929e-06
9.97881e-06
9.98052e-06
9.98362e-06
9.98736e-06
9.99082e-06
9.99358e-06
9.9954e-06
9.99645e-06
9.99699e-06
9.9973e-06
9.9975e-06
9.99771e-06
9.99793e-06
9.99805e-06
9.99792e-06
9.99752e-06
9.99691e-06
9.99622e-06
9.99565e-06
9.99553e-06
9.99615e-06
9.99762e-06
9.99983e-06
1.00026e-05
1.00056e-05
1.00084e-05
1.00107e-05
1.00125e-05
1.00138e-05
1.00148e-05
1.00156e-05
1.00163e-05
1.0017e-05
1.00175e-05
1.00176e-05
1.00171e-05
1.0016e-05
1.00141e-05
1.00118e-05
1.00092e-05
1.00067e-05
1.00045e-05
1.00027e-05
1.00014e-05
1.00005e-05
1e-05
9.99962e-06
9.99945e-06
9.99941e-06
9.99949e-06
9.99956e-06
9.99969e-06
9.99975e-06
9.99971e-06
9.99965e-06
9.99968e-06
9.99974e-06
9.99994e-06
1.00002e-05
1.00006e-05
1.00009e-05
1.00009e-05
1.00007e-05
1.00002e-05
9.99954e-06
9.99887e-06
9.99838e-06
9.99834e-06
9.99883e-06
9.99979e-06
1.00012e-05
1.00027e-05
1.00043e-05
1.00054e-05
1.00062e-05
1.00067e-05
1.00069e-05
1.00071e-05
1.00073e-05
1.00075e-05
1.00073e-05
1.00065e-05
1.00048e-05
1.00024e-05
9.99952e-06
9.99666e-06
9.99415e-06
9.99243e-06
9.99139e-06
9.99089e-06
9.99074e-06
9.9908e-06
9.99084e-06
9.99077e-06
9.99062e-06
9.99051e-06
9.99042e-06
9.99041e-06
9.99053e-06
9.9909e-06
9.99146e-06
9.9922e-06
9.99321e-06
9.99442e-06
9.99567e-06
9.99672e-06
9.99749e-06
9.99789e-06
9.99793e-06
9.99782e-06
9.99785e-06
9.99833e-06
9.99935e-06
1.00008e-05
1.00026e-05
1.00044e-05
1.00055e-05
1.00058e-05
1.0005e-05
1.00036e-05
1.00018e-05
1e-05
9.9987e-06
9.99816e-06
9.99823e-06
9.99866e-06
9.9993e-06
1e-05
1.00006e-05
1.00011e-05
1.00015e-05
1.00019e-05
1.0002e-05
1.00019e-05
1.00017e-05
1.00014e-05
1.00011e-05
1.00011e-05
1.00013e-05
1.00017e-05
1.00023e-05
1.00031e-05
1.00037e-05
1.00042e-05
1.00043e-05
1.00041e-05
1.00035e-05
1.00026e-05
1.00014e-05
1.00001e-05
9.99862e-06
9.99699e-06
9.99534e-06
9.99388e-06
9.99271e-06
9.99193e-06
9.99164e-06
9.99188e-06
9.99267e-06
9.99395e-06
9.99577e-06
9.99801e-06
1.00005e-05
1.00027e-05
1.00041e-05
1.00044e-05
1.00035e-05
1.00014e-05
9.99879e-06
9.9963e-06
9.99443e-06
9.99342e-06
9.99333e-06
9.99394e-06
9.99495e-06
9.99598e-06
9.99686e-06
9.9975e-06
9.99796e-06
9.99825e-06
9.99856e-06
9.99899e-06
9.99962e-06
1.00004e-05
1.00013e-05
1.00022e-05
1.00032e-05
1.0004e-05
1.00047e-05
1.00053e-05
1.00057e-05
1.00059e-05
1.00058e-05
1.00055e-05
1.0005e-05
1.00044e-05
1.00035e-05
1.00025e-05
1.00013e-05
9.99993e-06
9.99843e-06
9.99702e-06
9.99579e-06
9.99478e-06
9.99407e-06
9.99365e-06
9.99347e-06
9.99342e-06
9.99352e-06
9.99372e-06
9.99392e-06
9.99396e-06
9.99381e-06
9.9935e-06
9.99311e-06
9.9928e-06
9.99284e-06
9.99343e-06
9.99464e-06
9.99632e-06
9.99831e-06
1.00004e-05
1.00023e-05
1.00039e-05
1.0005e-05
1.00056e-05
1.00058e-05
1.00056e-05
1.00051e-05
1.00047e-05
1.00044e-05
1.00043e-05
1.00046e-05
1.00052e-05
1.0006e-05
1.00069e-05
1.00078e-05
1.00086e-05
1.00091e-05
1.00093e-05
1.00092e-05
1.00089e-05
1.00083e-05
1.00073e-05
1.00064e-05
1.00055e-05
1.00049e-05
1.00046e-05
1.00046e-05
1.00048e-05
1.00052e-05
1.00055e-05
1.00058e-05
1.00061e-05
1.00059e-05
1.00049e-05
1.0003e-05
9.99989e-06
9.99583e-06
9.99085e-06
9.98604e-06
9.98195e-06
9.97929e-06
9.97807e-06
9.97865e-06
9.9808e-06
9.98404e-06
9.98824e-06
9.99256e-06
9.9969e-06
1.00007e-05
1.00041e-05
1.00065e-05
1.00083e-05
1.00095e-05
1.00101e-05
1.00104e-05
1.00104e-05
1.00104e-05
1.00101e-05
1.00097e-05
1.00091e-05
1.00082e-05
1.00071e-05
1.00058e-05
1.00043e-05
1.00026e-05
1.0001e-05
9.99959e-06
9.99834e-06
9.9974e-06
9.99673e-06
9.99651e-06
9.99674e-06
9.99734e-06
9.99826e-06
9.99935e-06
1.00004e-05
1.00012e-05
1.00015e-05
1.00013e-05
1.00005e-05
9.99934e-06
9.9979e-06
9.99659e-06
9.99567e-06
9.99535e-06
9.99573e-06
9.99673e-06
9.99811e-06
9.99951e-06
1.00007e-05
1.00014e-05
1.00016e-05
1.00013e-05
1.00006e-05
9.99968e-06
9.99862e-06
9.99752e-06
9.99631e-06
9.99534e-06
9.99465e-06
9.9943e-06
9.99432e-06
9.99485e-06
9.99585e-06
9.99712e-06
9.99855e-06
9.99992e-06
1.00011e-05
1.00019e-05
1.00021e-05
1.00019e-05
1.0001e-05
9.99984e-06
9.99845e-06
9.99727e-06
9.99652e-06
9.99639e-06
9.99683e-06
9.99761e-06
9.99857e-06
9.99951e-06
1.00003e-05
1.00009e-05
1.00012e-05
1.00013e-05
1.0001e-05
1.00003e-05
9.99933e-06
9.99829e-06
9.99733e-06
9.99661e-06
9.99623e-06
9.9962e-06
9.99639e-06
9.99661e-06
9.99681e-06
9.99701e-06
9.99731e-06
9.99777e-06
9.99852e-06
9.9996e-06
1.0001e-05
1.00027e-05
1.00048e-05
1.00072e-05
1.001e-05
1.00131e-05
1.00163e-05
1.00192e-05
1.00214e-05
1.00222e-05
1.00216e-05
1.00196e-05
1.00166e-05
1.00131e-05
1.00096e-05
1.00065e-05
1.00038e-05
1.00015e-05
9.99919e-06
9.99688e-06
9.99439e-06
9.99174e-06
9.98908e-06
9.98678e-06
9.98502e-06
9.98394e-06
9.98365e-06
9.98414e-06
9.98525e-06
9.98664e-06
9.98811e-06
9.98943e-06
9.9905e-06
9.99125e-06
9.99181e-06
9.99231e-06
9.99292e-06
9.99367e-06
9.99465e-06
9.99588e-06
9.99738e-06
9.99901e-06
1.00008e-05
1.00027e-05
1.00047e-05
1.00066e-05
1.00084e-05
1.001e-05
1.00113e-05
1.00123e-05
1.0013e-05
1.00136e-05
1.00139e-05
1.0014e-05
1.00137e-05
1.0013e-05
1.00118e-05
1.00099e-05
1.00075e-05
1.0005e-05
1.00025e-05
1.00006e-05
9.99951e-06
9.99949e-06
1.00005e-05
1.00021e-05
1.0004e-05
1.00056e-05
1.00067e-05
1.00067e-05
1.00057e-05
1.00036e-05
1.00008e-05
9.9975e-06
9.99443e-06
9.99204e-06
9.9906e-06
9.99019e-06
9.99092e-06
9.99256e-06
9.99461e-06
9.99672e-06
9.99835e-06
9.9994e-06
9.99983e-06
9.99994e-06
1.00002e-05
1.00011e-05
1.00028e-05
1.00052e-05
1.00079e-05
1.00103e-05
1.00121e-05
1.00129e-05
1.00128e-05
1.0012e-05
1.00108e-05
1.00094e-05
1.0008e-05
1.00065e-05
1.0005e-05
1.00031e-05
1.00014e-05
1e-05
9.99942e-06
9.99987e-06
1.00015e-05
1.00042e-05
1.00076e-05
1.00112e-05
1.00143e-05
1.00165e-05
1.00174e-05
1.00169e-05
1.00152e-05
1.00124e-05
1.00093e-05
1.00058e-05
1.00027e-05
1e-05
9.99774e-06
9.99568e-06
9.99394e-06
9.99231e-06
9.99095e-06
9.9899e-06
9.9894e-06
9.98942e-06
9.98985e-06
9.99052e-06
9.99125e-06
9.99187e-06
9.99223e-06
9.9923e-06
9.9922e-06
9.99197e-06
9.99159e-06
9.99104e-06
9.99029e-06
9.98945e-06
9.9886e-06
9.98789e-06
9.98753e-06
9.98765e-06
9.98814e-06
9.9888e-06
9.98935e-06
9.98955e-06
9.98924e-06
9.98845e-06
9.9874e-06
9.98624e-06
9.9854e-06
9.98498e-06
9.98526e-06
9.9864e-06
9.98851e-06
9.99191e-06
9.99653e-06
1.00024e-05
1.0009e-05
1.00161e-05
1.00225e-05
1.00277e-05
1.0031e-05
1.00324e-05
1.00321e-05
1.00302e-05
1.00277e-05
1.00246e-05
1.00215e-05
1.00184e-05
1.00154e-05
1.00121e-05
1.00086e-05
1.00047e-05
1.00007e-05
9.99676e-06
9.9931e-06
9.98996e-06
9.98758e-06
9.98592e-06
9.9849e-06
9.98441e-06
9.98432e-06
9.9845e-06
9.98482e-06
9.98531e-06
9.98607e-06
9.98722e-06
9.98878e-06
9.9909e-06
9.9936e-06
9.99697e-06
1.00008e-05
1.00051e-05
1.00095e-05
1.00137e-05
1.00172e-05
1.00198e-05
1.00213e-05
1.00219e-05
1.00216e-05
1.00208e-05
1.00198e-05
1.00187e-05
1.00172e-05
1.0015e-05
1.00119e-05
1.00075e-05
1.0002e-05
9.99557e-06
9.98926e-06
9.98375e-06
9.97997e-06
9.97863e-06
9.98003e-06
9.98393e-06
9.98937e-06
9.99529e-06
1.00004e-05
1.00038e-05
1.00049e-05
1.00039e-05
1.00012e-05
9.99762e-06
9.99395e-06
9.99076e-06
9.9885e-06
9.98712e-06
9.98642e-06
9.98625e-06
9.98659e-06
9.98757e-06
9.98937e-06
9.9923e-06
9.99633e-06
1.00013e-05
1.00064e-05
1.0011e-05
1.00143e-05
1.00159e-05
1.00157e-05
1.00141e-05
1.00117e-05
1.00091e-05
1.00069e-05
1.00053e-05
1.00044e-05
1.00041e-05
1.00041e-05
1.0004e-05
1.00037e-05
1.0003e-05
1.00017e-05
9.99996e-06
9.99801e-06
9.99606e-06
9.99432e-06
9.99298e-06
9.9922e-06
9.99193e-06
9.99203e-06
9.99245e-06
9.99309e-06
9.99384e-06
9.99477e-06
9.996e-06
9.99764e-06
9.99965e-06
1.0002e-05
1.00045e-05
1.00068e-05
1.00087e-05
1.001e-05
1.00106e-05
1.00104e-05
1.00097e-05
1.00086e-05
1.00075e-05
1.00065e-05
1.00057e-05
1.00052e-05
1.0005e-05
1.00051e-05
1.00054e-05
1.00055e-05
1.00053e-05
1.00047e-05
1.00038e-05
1.00023e-05
1.00008e-05
9.99935e-06
9.9983e-06
9.99761e-06
9.99748e-06
9.99788e-06
9.9987e-06
9.99979e-06
1.00009e-05
1.00021e-05
1.0003e-05
1.00034e-05
1.00035e-05
1.00031e-05
1.00024e-05
1.00013e-05
1.00001e-05
9.99869e-06
9.99738e-06
9.99586e-06
9.9943e-06
9.99241e-06
9.9902e-06
9.98766e-06
9.985e-06
9.98243e-06
9.9801e-06
9.97828e-06
9.97709e-06
9.9767e-06
9.97706e-06
9.97819e-06
9.98005e-06
9.98265e-06
9.98576e-06
9.98933e-06
9.99295e-06
9.99646e-06
9.99948e-06
1.0002e-05
1.00037e-05
1.00047e-05
1.0005e-05
1.00046e-05
1.00038e-05
1.00028e-05
1.00018e-05
1.00008e-05
9.99992e-06
9.99919e-06
9.99859e-06
9.99799e-06
9.99745e-06
9.99695e-06
9.99651e-06
9.99633e-06
9.99653e-06
9.99726e-06
9.99852e-06
1.00002e-05
1.00022e-05
1.00042e-05
1.00059e-05
1.00072e-05
1.0008e-05
1.00083e-05
1.00083e-05
1.00082e-05
1.0008e-05
1.00079e-05
1.00079e-05
1.00077e-05
1.00072e-05
1.00064e-05
1.00052e-05
1.00036e-05
1.00017e-05
9.99976e-06
9.99807e-06
9.99668e-06
9.99566e-06
9.99503e-06
9.99481e-06
9.99492e-06
9.99523e-06
9.99573e-06
9.99638e-06
9.99712e-06
9.99783e-06
9.99854e-06
9.9993e-06
1.00002e-05
1.00013e-05
1.00026e-05
1.00042e-05
1.00061e-05
1.0008e-05
1.00097e-05
1.00112e-05
1.00121e-05
1.00122e-05
1.00114e-05
1.00099e-05
1.00078e-05
1.00055e-05
1.00034e-05
1.0002e-05
1.00014e-05
1.00016e-05
1.00025e-05
1.00038e-05
1.0005e-05
1.0006e-05
1.00064e-05
1.00064e-05
1.0006e-05
1.00055e-05
1.00049e-05
1.00045e-05
1.00041e-05
1.00038e-05
1.00033e-05
1.00027e-05
1.00017e-05
1.00003e-05
9.99855e-06
9.99682e-06
9.9953e-06
9.99427e-06
9.99395e-06
9.99441e-06
9.99547e-06
9.99674e-06
9.99785e-06
9.99852e-06
9.99867e-06
9.99829e-06
9.99764e-06
9.99709e-06
9.99683e-06
9.99688e-06
9.99717e-06
9.99748e-06
9.99757e-06
9.99717e-06
9.99626e-06
9.99495e-06
9.99337e-06
9.99174e-06
9.99024e-06
9.98905e-06
9.98814e-06
9.9875e-06
9.98718e-06
9.98729e-06
9.98797e-06
9.9893e-06
9.99141e-06
9.9942e-06
9.99754e-06
1.00009e-05
1.00039e-05
1.00062e-05
1.00074e-05
1.00073e-05
1.0006e-05
1.00038e-05
1.00009e-05
9.99786e-06
9.99516e-06
9.99329e-06
9.99247e-06
9.9929e-06
9.99457e-06
9.99727e-06
1.00004e-05
1.00034e-05
1.00055e-05
1.00063e-05
1.00057e-05
1.00034e-05
1.00002e-05
9.99649e-06
9.99309e-06
9.99023e-06
9.98868e-06
9.98838e-06
9.98917e-06
9.99074e-06
9.9926e-06
9.99448e-06
9.99607e-06
9.99733e-06
9.99822e-06
9.99888e-06
9.99943e-06
9.99998e-06
1.00006e-05
1.00013e-05
1.0002e-05
1.00026e-05
1.0003e-05
1.00029e-05
1.00025e-05
1.00015e-05
1.00001e-05
9.99839e-06
9.99667e-06
9.99499e-06
9.99384e-06
9.9932e-06
9.99309e-06
9.99329e-06
9.99359e-06
9.99366e-06
9.99325e-06
9.99216e-06
9.99073e-06
9.98911e-06
9.988e-06
9.9878e-06
9.98903e-06
9.99195e-06
9.99625e-06
1.00019e-05
1.00078e-05
1.00135e-05
1.00181e-05
1.00213e-05
1.00226e-05
1.00221e-05
1.00202e-05
1.0017e-05
1.00134e-05
1.00095e-05
1.0006e-05
1.00029e-05
1.00007e-05
9.9992e-06
9.99866e-06
9.9988e-06
9.99949e-06
1.00005e-05
1.00016e-05
1.00027e-05
1.00036e-05
1.00044e-05
1.0005e-05
1.00055e-05
1.00059e-05
1.00058e-05
1.00054e-05
1.00041e-05
1.00022e-05
9.99938e-06
9.99608e-06
9.99244e-06
9.98909e-06
9.98622e-06
9.98437e-06
9.98369e-06
9.98444e-06
9.98658e-06
9.98975e-06
9.9938e-06
9.99796e-06
1.00019e-05
1.00049e-05
1.00067e-05
1.00071e-05
1.00062e-05
1.00044e-05
1.00019e-05
9.99939e-06
9.99714e-06
9.99557e-06
9.99473e-06
9.99454e-06
9.99486e-06
9.99547e-06
9.9962e-06
9.99685e-06
9.99738e-06
9.99783e-06
9.99825e-06
9.99868e-06
9.99928e-06
1.00001e-05
1.00012e-05
1.00024e-05
1.00035e-05
1.00044e-05
1.00048e-05
1.00045e-05
1.00036e-05
1.00021e-05
1.00002e-05
9.99825e-06
9.99652e-06
9.99536e-06
9.99491e-06
9.99517e-06
9.99608e-06
9.99743e-06
9.99902e-06
1.00005e-05
1.00016e-05
1.00024e-05
1.00027e-05
1.00026e-05
1.00023e-05
1.00018e-05
1.00012e-05
1.00005e-05
9.99962e-06
9.99849e-06
9.99703e-06
9.99522e-06
9.99319e-06
9.99127e-06
9.98972e-06
9.98883e-06
9.98885e-06
9.9899e-06
9.99193e-06
9.99463e-06
9.99772e-06
1.00007e-05
1.00032e-05
1.00049e-05
1.00056e-05
1.00053e-05
1.00042e-05
1.00025e-05
1.00006e-05
9.99889e-06
9.99753e-06
9.99662e-06
9.99622e-06
9.99634e-06
9.99682e-06
9.99744e-06
9.9981e-06
9.99875e-06
9.99926e-06
9.99943e-06
9.9992e-06
9.99858e-06
9.99764e-06
9.99649e-06
9.99542e-06
9.99477e-06
9.99468e-06
9.99517e-06
9.99621e-06
9.99759e-06
9.99908e-06
1.00004e-05
1.00013e-05
1.00019e-05
1.00022e-05
1.00021e-05
1.00018e-05
1.00015e-05
1.00012e-05
1.00011e-05
1.00012e-05
1.00016e-05
1.00023e-05
1.00031e-05
1.00041e-05
1.00051e-05
1.0006e-05
1.00067e-05
1.0007e-05
1.0007e-05
1.00066e-05
1.00058e-05
1.00047e-05
1.00036e-05
1.00027e-05
1.00019e-05
1.00015e-05
1.00015e-05
1.00018e-05
1.00024e-05
1.00029e-05
1.00033e-05
1.00035e-05
1.00032e-05
1.00025e-05
1.00014e-05
1.00001e-05
9.99849e-06
9.99707e-06
9.99584e-06
9.99509e-06
9.99473e-06
9.99488e-06
9.99536e-06
9.99605e-06
9.99669e-06
9.99709e-06
9.99717e-06
9.9969e-06
9.99616e-06
9.99516e-06
9.99395e-06
9.99287e-06
9.99191e-06
9.99138e-06
9.99125e-06
9.99169e-06
9.9927e-06
9.99414e-06
9.99588e-06
9.99768e-06
9.99946e-06
1.00009e-05
1.00021e-05
1.00028e-05
1.00031e-05
1.00029e-05
1.00024e-05
1.00016e-05
1.00006e-05
9.99962e-06
9.99872e-06
9.99813e-06
9.99781e-06
9.99786e-06
9.99821e-06
9.99883e-06
9.99962e-06
1.00005e-05
1.00013e-05
1.00019e-05
1.00022e-05
1.00023e-05
1.00021e-05
1.00018e-05
1.00013e-05
1.0001e-05
1.00009e-05
1.0001e-05
1.00013e-05
1.00016e-05
1.00019e-05
1.0002e-05
1.00018e-05
1.00014e-05
1.00007e-05
9.99994e-06
9.99915e-06
9.99859e-06
9.99823e-06
9.9982e-06
9.99839e-06
9.99876e-06
9.99924e-06
9.99971e-06
1.00001e-05
1.00005e-05
1.00007e-05
1.00009e-05
1.0001e-05
1.0001e-05
1.00009e-05
1.00009e-05
1.00008e-05
1.00007e-05
1.00006e-05
1.00004e-05
1.00002e-05
9.9998e-06
9.99921e-06
9.99856e-06
9.99797e-06
9.99752e-06
9.99739e-06
9.99766e-06
9.99835e-06
9.9993e-06
1.00004e-05
1.00015e-05
1.00024e-05
1.0003e-05
1.00031e-05
1.00027e-05
1.0002e-05
1.0001e-05
9.99978e-06
9.99862e-06
9.99763e-06
9.99693e-06
9.99664e-06
9.99686e-06
9.99759e-06
9.99869e-06
1.00001e-05
1.00015e-05
1.00029e-05
1.00041e-05
1.00047e-05
1.00048e-05
1.00043e-05
1.00032e-05
1.00014e-05
9.99939e-06
9.9972e-06
9.99515e-06
9.99351e-06
9.99261e-06
9.99253e-06
9.99325e-06
9.99469e-06
9.99659e-06
9.99871e-06
1.00006e-05
1.00021e-05
1.00029e-05
1.0003e-05
1.00023e-05
1.0001e-05
9.99955e-06
9.99812e-06
9.99692e-06
9.99616e-06
9.99603e-06
9.99654e-06
9.99755e-06
9.99893e-06
1.00004e-05
1.00018e-05
1.00028e-05
1.00034e-05
1.00034e-05
1.0003e-05
1.00022e-05
1.00012e-05
1e-05
9.99889e-06
9.99782e-06
9.99686e-06
9.99615e-06
9.99571e-06
9.99554e-06
9.9957e-06
9.99627e-06
9.99726e-06
9.99858e-06
1.00002e-05
1.00019e-05
1.00037e-05
1.00052e-05
1.00064e-05
1.00071e-05
1.00073e-05
1.0007e-05
1.00062e-05
1.00052e-05
1.00039e-05
1.00025e-05
1.00012e-05
1.00001e-05
9.99922e-06
9.99859e-06
9.99824e-06
9.99813e-06
9.99833e-06
9.99875e-06
9.99928e-06
9.99985e-06
1.00004e-05
1.00008e-05
1.0001e-05
1.00011e-05
1.00013e-05
1.00014e-05
1.00016e-05
1.00018e-05
1.00021e-05
1.00023e-05
1.00024e-05
1.00023e-05
1.00021e-05
1.00015e-05
1.00008e-05
1e-05
9.99954e-06
9.99942e-06
9.99979e-06
1.00005e-05
1.00011e-05
1.00011e-05
9.99966e-06
9.99616e-06
9.99091e-06
9.9835e-06
9.9765e-06
9.97127e-06
9.97111e-06
9.97829e-06
9.99398e-06
1.00198e-05
1.00515e-05
1.00906e-05
1.01259e-05
1.01568e-05
1.01739e-05
1.01753e-05
1.01562e-05
1.01145e-05
1.00552e-05
9.97049e-06
9.87556e-06
9.76134e-06
9.64536e-06
9.50498e-06
9.37197e-06
9.22142e-06
9.08386e-06
8.93466e-06
8.81335e-06
8.71988e-06
8.6944e-06
8.75443e-06
8.90458e-06
9.14193e-06
9.41831e-06
9.6962e-06
9.93764e-06
1.03242e-05
1.11332e-05
1.26575e-05
1.44573e-05
1.5782e-05
1.57513e-05
1.42809e-05
1.40769e-05
1.80832e-05
2.30707e-05
2.53553e-05
2.28116e-05
1.99504e-05
2.9742e-05
4.84868e-05
6.63142e-05
8.30817e-05
9.74769e-05
0.000110529
0.000122305
0.000132805
0.000142514
0.000151314
0.000158686
0.00016337
0.000176326
0.00017913
0.000170565
0.000181876
0.000182244
0.000180952
0.000202163
0.000196694
0.000196471
0.000200176
0.000206739
0.00019892
0.000203194
0.000202901
0.000196814
0.00019761
0.000193832
0.00018816
0.000182862
0.00018769
0.000208833
0.000195364
0.000201753
0.000202217
0.000209553
0.000213495
0.000205446
0.000205232
0.0002401
0.000213283
0.000188402
0.00019141
0.000187501
0.000179436
0.000174819
0.000186943
0.000200681
0.000216378
0.000196388
0.000193952
0.000201559
0.000189143
0.000218044
0.000169045
0.000177517
0.000179648
0.000191784
0.000194755
0.000182723
0.000191836
0.000181828
0.000186747
0.000178958
0.000171203
0.000169624
0.000172119
0.000185704
0.000196979
0.000188981
0.000194259
0.0001842
0.000166844
0.00015172
0.000150216
0.000140075
0.000129614
0.000122083
0.000116957
0.000107426
9.51553e-05
8.37003e-05
7.31395e-05
6.20922e-05
5.31916e-05
4.76088e-05
4.51921e-05
4.50417e-05
4.59487e-05
4.7054e-05
4.79065e-05
4.81742e-05
4.76471e-05
4.62666e-05
4.41417e-05
4.1604e-05
3.88448e-05
3.6072e-05
3.3264e-05
3.04812e-05
2.76803e-05
2.5187e-05
2.3324e-05
2.24878e-05
2.28459e-05
2.44561e-05
2.71619e-05
3.04614e-05
3.35176e-05
3.51917e-05
3.45483e-05
3.05459e-05
2.50977e-05
2.27406e-05
3.23996e-05
4.84829e-05
5.97004e-05
6.68301e-05
7.0439e-05
7.26638e-05
7.39434e-05
7.44064e-05
7.39769e-05
7.29374e-05
7.18608e-05
7.07208e-05
6.95352e-05
6.8373e-05
6.75261e-05
6.69686e-05
6.67017e-05
6.66254e-05
6.67182e-05
6.69882e-05
6.7366e-05
6.7818e-05
6.8253e-05
6.86878e-05
6.90391e-05
6.93263e-05
6.94924e-05
6.9562e-05
6.95387e-05
6.94821e-05
6.93914e-05
6.92482e-05
6.90769e-05
6.8915e-05
6.8772e-05
6.86364e-05
6.85227e-05
6.84701e-05
6.84668e-05
6.84568e-05
6.84804e-05
6.85136e-05
6.85688e-05
6.86263e-05
6.86658e-05
6.87145e-05
6.87708e-05
6.87191e-05
6.87756e-05
6.88338e-05
6.88021e-05
6.88622e-05
6.88026e-05
6.87707e-05
6.87142e-05
6.86495e-05
6.86093e-05
6.85803e-05
6.85938e-05
6.86234e-05
6.85967e-05
6.86107e-05
6.86091e-05
6.86192e-05
6.85774e-05
6.85797e-05
6.85651e-05
6.85633e-05
6.85284e-05
6.85845e-05
6.85763e-05
6.8569e-05
6.86245e-05
6.86223e-05
6.86497e-05
6.86735e-05
6.86489e-05
6.87004e-05
6.86768e-05
6.87104e-05
6.87048e-05
6.87228e-05
6.87218e-05
6.86332e-05
6.86247e-05
6.85554e-05
6.85378e-05
6.85326e-05
6.85767e-05
6.85859e-05
6.86015e-05
6.86215e-05
6.86563e-05
6.86875e-05
6.87606e-05
6.87899e-05
6.87773e-05
6.87595e-05
6.87276e-05
6.86579e-05
6.86024e-05
6.85913e-05
6.86104e-05
6.86424e-05
6.87149e-05
6.88269e-05
6.89161e-05
6.89314e-05
6.88948e-05
6.88112e-05
6.86577e-05
6.84301e-05
6.82025e-05
6.80425e-05
6.80082e-05
6.81129e-05
6.83917e-05
6.88226e-05
6.92938e-05
6.96775e-05
6.99087e-05
6.98921e-05
6.95442e-05
6.88955e-05
6.80533e-05
6.71369e-05
6.64873e-05
6.64698e-05
6.72383e-05
6.87189e-05
7.07314e-05
7.29202e-05
7.4486e-05
7.42636e-05
7.11663e-05
6.42961e-05
5.26513e-05
3.625e-05
2.54392e-05
2.44812e-05
2.57497e-05
2.78911e-05
2.9893e-05
2.978e-05
2.76577e-05
2.57013e-05
2.44483e-05
2.29245e-05
2.15767e-05
2.09897e-05
2.10076e-05
2.1206e-05
2.15753e-05
2.23177e-05
2.33756e-05
2.4525e-05
2.5588e-05
2.66703e-05
2.78545e-05
2.91531e-05
3.04382e-05
3.16605e-05
3.27574e-05
3.37931e-05
3.47506e-05
3.56659e-05
3.65492e-05
3.74681e-05
3.8408e-05
3.94121e-05
4.04621e-05
4.15683e-05
4.26441e-05
4.36859e-05
4.46864e-05
4.57204e-05
4.67593e-05
4.78296e-05
4.89153e-05
5.0053e-05
5.11815e-05
5.22945e-05
5.33483e-05
5.43833e-05
5.53745e-05
5.63549e-05
5.73234e-05
5.83313e-05
5.9326e-05
6.02969e-05
6.12084e-05
6.20901e-05
6.28774e-05
6.35849e-05
6.45289e-05
6.5109e-05
6.55591e-05
6.61768e-05
6.66687e-05
6.71348e-05
6.76511e-05
6.7746e-05
6.79135e-05
6.79842e-05
6.78802e-05
6.76536e-05
6.7243e-05
6.67033e-05
6.60317e-05
6.52966e-05
6.44435e-05
6.35535e-05
6.25473e-05
6.15334e-05
6.03901e-05
5.92542e-05
5.79946e-05
5.67362e-05
5.53028e-05
5.3836e-05
5.22279e-05
5.06491e-05
4.89283e-05
4.72762e-05
4.5537e-05
4.38935e-05
4.21515e-05
4.05121e-05
3.88467e-05
3.73375e-05
3.58344e-05
3.45176e-05
3.32711e-05
3.22404e-05
3.12345e-05
3.03492e-05
2.94744e-05
2.87067e-05
2.78833e-05
2.70579e-05
2.636e-05
2.5501e-05
2.47217e-05
2.3888e-05
2.31667e-05
2.23168e-05
2.15815e-05
2.08203e-05
2.00772e-05
1.93406e-05
1.85982e-05
1.78399e-05
1.69752e-05
1.6233e-05
1.54511e-05
1.46678e-05
1.39412e-05
1.32288e-05
1.2557e-05
1.19425e-05
1.13188e-05
1.07595e-05
1.02591e-05
9.8184e-06
9.44594e-06
9.14408e-06
8.9134e-06
8.76228e-06
8.66448e-06
8.62631e-06
8.64699e-06
8.71083e-06
8.80372e-06
8.92662e-06
9.0689e-06
9.2158e-06
9.36847e-06
9.52051e-06
9.65511e-06
9.78315e-06
9.89724e-06
9.99253e-06
1.0075e-05
1.0135e-05
1.01817e-05
1.02128e-05
1.02274e-05
1.02306e-05
1.0224e-05
1.02095e-05
1.01873e-05
1.0162e-05
1.01338e-05
1.01058e-05
1.00782e-05
1.00533e-05
1.00321e-05
1.0014e-05
9.99862e-06
9.98721e-06
9.97925e-06
9.97394e-06
9.97094e-06
9.97032e-06
9.97159e-06
9.9743e-06
9.97825e-06
9.98292e-06
9.9879e-06
9.99272e-06
9.99709e-06
1.00004e-05
1.00024e-05
1.00031e-05
1.00025e-05
1.00009e-05
9.99862e-06
9.99628e-06
9.99431e-06
9.99318e-06
9.993e-06
9.99359e-06
9.99474e-06
9.99621e-06
9.99783e-06
9.99935e-06
1.00008e-05
1.00021e-05
1.00033e-05
1.00042e-05
1.00046e-05
1.00045e-05
1.00037e-05
1.00021e-05
9.99987e-06
9.99727e-06
9.99467e-06
9.99247e-06
9.99107e-06
9.99085e-06
9.99197e-06
9.99418e-06
9.99715e-06
1.00003e-05
1.00031e-05
1.0005e-05
1.00059e-05
1.00058e-05
1.0005e-05
1.0004e-05
1.00032e-05
1.00031e-05
1.00035e-05
1.00044e-05
1.00054e-05
1.00062e-05
1.00065e-05
1.00061e-05
1.00051e-05
1.00035e-05
1.00017e-05
9.99982e-06
9.99797e-06
9.99641e-06
9.99522e-06
9.99445e-06
9.99418e-06
9.99452e-06
9.99551e-06
9.997e-06
9.99891e-06
1.0001e-05
1.00031e-05
1.00049e-05
1.00059e-05
1.00062e-05
1.00054e-05
1.00038e-05
1.00015e-05
9.99881e-06
9.99613e-06
9.9938e-06
9.99204e-06
9.99112e-06
9.99112e-06
9.99191e-06
9.99341e-06
9.99537e-06
9.99759e-06
9.99974e-06
1.00016e-05
1.00029e-05
1.00036e-05
1.00037e-05
1.00033e-05
1.00027e-05
1.00022e-05
1.00018e-05
1.00013e-05
1.00009e-05
1.00006e-05
1.00001e-05
9.99973e-06
9.99926e-06
9.99873e-06
9.998e-06
9.9972e-06
9.99627e-06
9.99548e-06
9.99493e-06
9.99495e-06
9.99568e-06
9.99703e-06
9.99883e-06
1.00006e-05
1.0002e-05
1.00026e-05
1.00021e-05
1.00007e-05
9.99828e-06
9.99556e-06
9.99266e-06
9.9904e-06
9.98888e-06
9.98848e-06
9.98906e-06
9.99038e-06
9.99219e-06
9.99417e-06
9.99623e-06
9.99806e-06
9.99959e-06
1.00007e-05
1.00014e-05
1.00016e-05
1.00015e-05
1.00012e-05
1.00005e-05
9.99967e-06
9.99879e-06
9.99792e-06
9.99724e-06
9.99679e-06
9.99652e-06
9.99635e-06
9.99627e-06
9.99624e-06
9.99631e-06
9.99658e-06
9.99718e-06
9.99812e-06
9.99921e-06
1.00002e-05
1.00007e-05
1.00006e-05
9.99985e-06
9.99879e-06
9.99853e-06
9.9982e-06
9.99801e-06
9.99783e-06
9.9977e-06
9.99759e-06
9.99746e-06
9.99731e-06
9.99721e-06
9.99739e-06
9.99788e-06
9.99845e-06
9.999e-06
9.99948e-06
9.9999e-06
1.00002e-05
1.00003e-05
1.00004e-05
1.00003e-05
1.00002e-05
9.99998e-06
9.99972e-06
9.9995e-06
9.99932e-06
9.9993e-06
9.99945e-06
9.99983e-06
1.00004e-05
1.00012e-05
1.0002e-05
1.00027e-05
1.00031e-05
1.00032e-05
1.00029e-05
1.00022e-05
1.00013e-05
1.00003e-05
9.99919e-06
9.99821e-06
9.99734e-06
9.99673e-06
9.99647e-06
9.9967e-06
9.99739e-06
9.99837e-06
9.99948e-06
1.00005e-05
1.00013e-05
1.00017e-05
1.00017e-05
1.00015e-05
1.0001e-05
1.00004e-05
9.99995e-06
9.99961e-06
9.99939e-06
9.99929e-06
9.99927e-06
9.99931e-06
9.99933e-06
9.99929e-06
9.99911e-06
9.99883e-06
9.99845e-06
9.99814e-06
9.998e-06
9.99811e-06
9.99843e-06
9.99892e-06
9.99953e-06
1.00002e-05
1.00007e-05
1.0001e-05
1.00011e-05
1.00011e-05
1.00009e-05
1.00007e-05
1.00005e-05
1.00002e-05
9.99986e-06
9.99949e-06
9.9993e-06
9.99927e-06
9.99938e-06
9.9995e-06
9.99966e-06
9.9998e-06
9.9999e-06
9.99988e-06
9.99989e-06
9.99989e-06
9.99985e-06
9.99974e-06
9.99964e-06
9.99955e-06
9.99943e-06
9.99928e-06
9.99917e-06
9.99905e-06
9.999e-06
9.999e-06
9.99914e-06
9.99934e-06
9.99959e-06
9.99979e-06
1e-05
1.00002e-05
1.00003e-05
1.00002e-05
1.00001e-05
1e-05
9.9999e-06
9.99976e-06
9.99972e-06
9.99987e-06
1.00001e-05
1.00004e-05
1.00006e-05
1.00006e-05
1.00006e-05
1.00004e-05
1.00003e-05
1.00001e-05
9.9999e-06
9.99967e-06
9.99952e-06
9.99941e-06
9.99937e-06
9.99939e-06
9.99962e-06
1.00001e-05
1.00007e-05
1.00015e-05
1.00024e-05
1.0003e-05
1.00033e-05
1.00028e-05
1.00011e-05
9.99786e-06
9.99266e-06
9.98659e-06
9.98001e-06
9.97571e-06
9.97605e-06
9.98303e-06
1.00001e-05
1.00248e-05
1.00614e-05
1.00994e-05
1.01441e-05
1.01782e-05
1.0201e-05
1.02009e-05
1.01755e-05
1.01231e-05
1.00295e-05
9.91508e-06
9.74986e-06
9.5797e-06
9.37076e-06
9.18852e-06
8.98472e-06
8.83972e-06
8.72223e-06
8.67429e-06
8.6801e-06
8.76572e-06
8.99712e-06
9.28938e-06
9.77283e-06
1.02932e-05
1.10733e-05
1.18467e-05
1.29404e-05
1.39025e-05
1.49208e-05
1.60539e-05
1.73137e-05
1.85628e-05
1.98644e-05
2.12141e-05
2.26536e-05
2.41602e-05
2.56051e-05
2.71729e-05
2.88316e-05
3.05211e-05
3.21416e-05
3.38838e-05
3.5998e-05
3.78572e-05
3.96673e-05
4.13469e-05
4.32351e-05
4.50945e-05
4.68123e-05
4.8601e-05
5.03742e-05
5.21419e-05
5.37559e-05
5.54258e-05
5.71271e-05
5.86904e-05
6.03341e-05
6.17571e-05
6.33215e-05
6.48638e-05
6.62667e-05
6.77128e-05
6.92108e-05
7.05685e-05
7.20185e-05
7.32163e-05
7.45341e-05
7.57487e-05
7.67383e-05
7.76916e-05
7.86285e-05
7.93506e-05
8.01367e-05
8.06898e-05
8.13913e-05
8.20766e-05
8.26405e-05
8.32282e-05
8.38795e-05
8.44314e-05
8.47607e-05
8.46958e-05
8.55102e-05
8.57532e-05
8.58919e-05
8.60565e-05
8.63359e-05
8.66426e-05
8.68607e-05
8.68848e-05
8.78749e-05
8.84172e-05
8.89186e-05
8.94682e-05
9.00876e-05
9.0674e-05
9.11058e-05
9.09443e-05
9.21329e-05
9.24685e-05
9.26086e-05
9.261e-05
9.24984e-05
9.21878e-05
9.16907e-05
9.10436e-05
9.03496e-05
8.958e-05
8.88232e-05
8.80998e-05
8.74649e-05
8.6834e-05
8.61974e-05
8.55006e-05
8.47663e-05
8.39118e-05
8.29514e-05
8.18339e-05
8.06299e-05
7.93138e-05
7.79814e-05
7.66093e-05
7.5366e-05
7.43175e-05
7.33358e-05
7.229e-05
7.11549e-05
6.99358e-05
6.87164e-05
6.76936e-05
6.69071e-05
6.62789e-05
6.55476e-05
6.45919e-05
6.32645e-05
6.19725e-05
6.10502e-05
6.05335e-05
5.98506e-05
5.90774e-05
5.86116e-05
5.8439e-05
5.80452e-05
5.74985e-05
5.68655e-05
5.64563e-05
5.60269e-05
5.58251e-05
5.59727e-05
5.67385e-05
5.78171e-05
5.90574e-05
6.06794e-05
6.27374e-05
6.48848e-05
6.70834e-05
6.90195e-05
7.13441e-05
7.34674e-05
7.55808e-05
7.72343e-05
7.95886e-05
8.17376e-05
8.43636e-05
8.68124e-05
8.98193e-05
9.3299e-05
9.75521e-05
0.000100829
0.000106206
0.000111609
0.000115083
0.000116296
0.000117114
0.000114683
0.000108492
0.000100786
9.09763e-05
8.47673e-05
9.1147e-05
0.000121919
0.000210734
0.0002758
0.000308096
0.000315969
0.000333256
0.000315987
0.000339411
0.000338583
0.000361793
0.000325476
0.000359354
0.00035239
0.000332584
0.0003745
0.000335782
0.000334508
0.000351915
0.000348474
0.000342591
0.000322276
0.000345425
0.000338183
0.000339015
0.000334208
0.000362904
0.000341977
0.000348357
0.00033572
0.000342698
0.000324579
0.00036342
0.000399501
0.000343924
0.000341304
0.000356975
0.000342682
0.000365411
0.000356281
0.000354202
0.000354005
0.000352707
0.000379886
0.000344989
0.00034344
0.000355674
0.000338218
0.000347646
0.000337581
0.000331164
0.00037285
0.000353986
0.000344902
0.00034897
0.000363499
0.000339712
0.000363591
0.000351239
0.000332553
0.000344452
0.000339619
0.000342098
0.000328424
0.000344819