/*--------------------------------*- C++ -*----------------------------------*\
| =========                 |                                                 |
| \\      /  F ield         | foam-extend: Open Source CFD                    |
|  \\    /   O peration     | Version:     4.0                                |
|   \\  /    A nd           | Web:         http://www.foam-extend.org         |
|    \\/     M anipulation  |                                                 |
\*---------------------------------------------------------------------------*/
FoamFile
{
    version     2.0;
    format      ascii;
    class       volScalarField;
    location    "0.001";
    object      h;
}
// * * * * * * * * * * * * * * * * * * * * * * * * * * * * * * * * * * * * * //

dimensions      [0 1 0 0 0 0 0];

internalField   nonuniform List<scalar> 
176451
(
1.00004e-05
1.00004e-05
9.99982e-06
1.00001e-05
1.00001e-05
9.99929e-06
1.00006e-05
1.00005e-05
1.00002e-05
9.9992e-06
9.99927e-06
1.00014e-05
1.0001e-05
1.0001e-05
1.00008e-05
1.00001e-05
1.00008e-05
9.99925e-06
1.00008e-05
1.00004e-05
1.00009e-05
1.00005e-05
1.00007e-05
1.00004e-05
1.00007e-05
9.99997e-06
1.00001e-05
1.00002e-05
9.99944e-06
9.99969e-06
1.00006e-05
1.0001e-05
9.99948e-06
9.9991e-06
1.00003e-05
9.99926e-06
1.00004e-05
1.0001e-05
9.99987e-06
9.99912e-06
1.00007e-05
9.99966e-06
1.00001e-05
9.99903e-06
9.99986e-06
9.99956e-06
1.00002e-05
9.99996e-06
1.00004e-05
1.00004e-05
1.00009e-05
9.99997e-06
9.99919e-06
1.00007e-05
9.99977e-06
9.99924e-06
1.00001e-05
9.99958e-06
9.99854e-06
9.9991e-06
9.99954e-06
9.99885e-06
9.99892e-06
9.99863e-06
9.99962e-06
1.00014e-05
9.99861e-06
1.00003e-05
1.00012e-05
1e-05
9.99977e-06
9.99947e-06
1e-05
1.00003e-05
1.00004e-05
1.00002e-05
9.99993e-06
1.00013e-05
9.99978e-06
9.99851e-06
1.00003e-05
9.99971e-06
9.99888e-06
9.99912e-06
9.99982e-06
1.00011e-05
9.9998e-06
9.99988e-06
1.00002e-05
1.0001e-05
9.99986e-06
9.9999e-06
9.99998e-06
1.00006e-05
9.9989e-06
9.99922e-06
9.99952e-06
1.00008e-05
1.0001e-05
9.99992e-06
1e-05
9.99946e-06
1.00011e-05
1.00004e-05
9.9993e-06
9.9991e-06
9.99984e-06
9.99961e-06
9.99948e-06
1.0001e-05
1.00021e-05
1.00003e-05
1.00006e-05
9.99998e-06
1.00002e-05
1.00016e-05
9.99901e-06
9.99869e-06
1.00005e-05
1.00012e-05
9.99934e-06
1.00006e-05
9.99913e-06
1.00003e-05
1.00005e-05
9.99938e-06
9.99916e-06
1.00004e-05
1.00005e-05
1.00003e-05
1.00006e-05
1.00002e-05
9.99976e-06
1.00012e-05
1e-05
1.00008e-05
9.99993e-06
9.9998e-06
1.00012e-05
1.00001e-05
9.99903e-06
1.00002e-05
1.00008e-05
1.00004e-05
1.00004e-05
1.00003e-05
9.99999e-06
9.99909e-06
1.00009e-05
9.9993e-06
1.00009e-05
9.9997e-06
9.99888e-06
9.99961e-06
9.99923e-06
1.00005e-05
1.00004e-05
1.00005e-05
1.00011e-05
1.00002e-05
1.00005e-05
1.0001e-05
9.99987e-06
1.00002e-05
9.99948e-06
1.00007e-05
1.00006e-05
1.00002e-05
9.99914e-06
1.00006e-05
9.99892e-06
1.00005e-05
1.00006e-05
9.99977e-06
9.99968e-06
9.9999e-06
9.99968e-06
9.99924e-06
1.00004e-05
9.99917e-06
1.00007e-05
9.9997e-06
9.99981e-06
9.9994e-06
9.99858e-06
1.00003e-05
1.00011e-05
1.00005e-05
1.00008e-05
1e-05
9.9999e-06
9.99972e-06
9.99957e-06
9.99947e-06
9.99943e-06
9.99944e-06
9.99949e-06
9.9995e-06
9.99948e-06
9.99949e-06
9.9995e-06
9.99948e-06
9.99947e-06
9.99948e-06
9.99951e-06
9.9995e-06
9.9995e-06
9.99951e-06
9.99953e-06
9.99951e-06
9.99949e-06
9.9995e-06
9.99952e-06
9.99951e-06
9.9995e-06
9.99951e-06
9.99954e-06
9.99952e-06
9.99951e-06
9.99952e-06
9.99955e-06
9.99954e-06
9.99953e-06
9.99954e-06
9.99956e-06
9.99953e-06
9.99951e-06
9.99951e-06
9.99955e-06
9.99954e-06
9.99954e-06
9.99956e-06
9.99959e-06
9.99958e-06
9.99957e-06
9.99957e-06
9.99955e-06
9.99953e-06
9.99955e-06
9.99954e-06
9.99957e-06
9.99954e-06
9.99956e-06
9.99959e-06
9.99962e-06
9.99958e-06
9.99961e-06
9.9996e-06
9.99957e-06
9.99956e-06
9.99961e-06
9.99959e-06
9.99959e-06
9.99953e-06
9.99955e-06
9.99958e-06
9.99958e-06
9.99956e-06
9.99958e-06
9.99961e-06
9.9996e-06
9.99957e-06
9.9996e-06
9.99961e-06
9.99962e-06
9.99957e-06
9.99958e-06
9.99958e-06
9.99957e-06
9.99955e-06
9.99959e-06
9.99961e-06
9.9996e-06
9.99958e-06
9.99961e-06
9.99961e-06
9.9996e-06
9.99958e-06
9.99962e-06
9.99964e-06
9.99963e-06
9.99961e-06
9.99963e-06
9.99964e-06
9.99962e-06
9.9996e-06
9.99963e-06
9.99965e-06
9.99963e-06
9.99961e-06
9.99964e-06
9.99966e-06
9.99964e-06
9.99962e-06
9.99966e-06
9.99967e-06
9.99964e-06
9.99961e-06
9.99965e-06
9.99966e-06
9.99964e-06
9.99962e-06
9.99966e-06
9.99968e-06
9.99966e-06
9.99964e-06
9.99967e-06
9.99968e-06
9.99965e-06
9.99962e-06
9.99966e-06
9.99968e-06
9.99967e-06
9.99965e-06
9.99969e-06
9.9997e-06
9.99966e-06
9.99962e-06
9.99967e-06
9.9997e-06
9.99969e-06
9.99967e-06
9.9997e-06
9.9997e-06
9.99968e-06
9.99965e-06
9.99968e-06
9.9997e-06
9.99968e-06
9.99966e-06
9.99968e-06
9.99969e-06
9.99969e-06
9.99969e-06
9.99972e-06
9.9997e-06
9.99971e-06
9.99973e-06
9.99971e-06
9.9997e-06
9.99971e-06
9.99973e-06
9.99971e-06
9.9997e-06
9.99971e-06
9.99974e-06
9.99973e-06
9.99972e-06
9.99972e-06
9.99974e-06
9.99971e-06
9.99969e-06
9.99971e-06
9.99975e-06
9.99975e-06
9.99973e-06
9.99974e-06
9.99975e-06
9.99973e-06
9.99971e-06
9.99973e-06
9.99976e-06
9.99975e-06
9.99973e-06
9.99973e-06
9.99976e-06
9.99975e-06
9.99974e-06
9.99975e-06
9.99978e-06
9.99976e-06
9.99974e-06
9.99975e-06
9.99977e-06
9.99976e-06
9.99974e-06
9.99975e-06
9.99978e-06
9.99976e-06
9.99975e-06
9.99976e-06
9.99979e-06
9.99978e-06
9.99976e-06
9.99976e-06
9.99978e-06
9.99977e-06
9.99975e-06
9.99976e-06
9.99979e-06
9.99978e-06
9.99976e-06
9.99977e-06
9.9998e-06
9.99978e-06
9.99977e-06
9.99977e-06
9.9998e-06
9.99978e-06
9.99977e-06
9.99978e-06
9.9998e-06
9.99979e-06
9.99978e-06
9.99978e-06
9.99981e-06
9.99979e-06
9.99978e-06
9.99979e-06
9.99982e-06
9.9998e-06
9.99978e-06
9.99979e-06
9.99982e-06
9.9998e-06
9.99979e-06
9.9998e-06
9.99983e-06
9.99981e-06
9.99979e-06
9.9998e-06
9.99983e-06
9.99981e-06
9.9998e-06
9.99982e-06
9.99984e-06
9.99982e-06
9.99981e-06
9.99983e-06
9.99985e-06
9.99983e-06
9.9998e-06
9.99985e-06
9.99985e-06
9.99982e-06
9.99981e-06
9.99984e-06
9.99989e-06
9.99986e-06
9.99985e-06
9.99982e-06
9.99984e-06
9.99979e-06
9.99979e-06
9.99983e-06
9.99987e-06
9.99982e-06
9.99983e-06
9.99985e-06
9.99985e-06
9.9998e-06
9.9998e-06
9.99985e-06
9.99989e-06
9.99986e-06
9.99983e-06
9.99984e-06
9.99988e-06
9.99984e-06
9.99984e-06
9.99985e-06
9.99987e-06
9.99984e-06
9.99983e-06
9.99985e-06
9.9999e-06
9.99987e-06
9.99987e-06
9.99987e-06
9.99988e-06
9.99984e-06
9.99983e-06
9.99985e-06
9.99991e-06
9.99988e-06
9.99987e-06
9.99986e-06
9.99988e-06
9.99988e-06
9.99989e-06
9.99989e-06
9.99987e-06
9.99987e-06
9.99987e-06
9.99988e-06
9.9999e-06
9.99987e-06
9.99986e-06
9.99989e-06
9.99988e-06
9.99985e-06
9.99985e-06
9.99988e-06
9.9999e-06
9.99987e-06
9.99988e-06
9.99991e-06
9.99992e-06
9.99989e-06
9.99989e-06
9.9999e-06
9.99991e-06
9.99992e-06
9.99995e-06
9.9999e-06
9.99988e-06
9.99984e-06
9.99986e-06
9.99991e-06
9.99992e-06
9.99988e-06
9.9999e-06
9.99993e-06
9.99994e-06
9.99989e-06
9.9999e-06
9.99995e-06
9.99995e-06
9.99989e-06
9.99988e-06
9.9999e-06
9.99991e-06
9.99991e-06
9.99992e-06
9.99994e-06
9.99993e-06
9.99992e-06
9.99993e-06
9.99993e-06
9.99994e-06
9.99993e-06
9.99991e-06
9.99989e-06
9.9999e-06
9.99993e-06
9.99993e-06
9.99991e-06
9.99992e-06
9.99995e-06
9.99993e-06
9.99991e-06
9.99992e-06
9.99995e-06
9.99994e-06
9.99992e-06
9.99993e-06
9.99995e-06
9.99994e-06
9.99992e-06
9.99993e-06
9.99996e-06
9.99995e-06
9.99993e-06
9.99994e-06
9.99996e-06
9.99994e-06
9.99993e-06
9.99993e-06
9.99996e-06
9.99995e-06
9.99994e-06
9.99994e-06
9.99997e-06
9.99995e-06
9.99993e-06
9.99994e-06
9.99997e-06
9.99996e-06
9.99995e-06
9.99995e-06
9.99997e-06
9.99996e-06
9.99994e-06
9.99995e-06
9.99997e-06
9.99996e-06
9.99995e-06
9.99996e-06
9.99998e-06
9.99997e-06
9.99995e-06
9.99996e-06
9.99998e-06
9.99997e-06
9.99996e-06
9.99996e-06
9.99999e-06
9.99997e-06
9.99996e-06
9.99996e-06
9.99999e-06
9.99998e-06
9.99996e-06
9.99997e-06
9.99999e-06
9.99998e-06
9.99996e-06
9.99997e-06
1e-05
9.99999e-06
9.99997e-06
9.99997e-06
1e-05
9.99999e-06
9.99997e-06
9.99997e-06
1e-05
9.99999e-06
9.99997e-06
9.99998e-06
1e-05
9.99999e-06
9.99997e-06
9.99998e-06
1e-05
9.99999e-06
9.99998e-06
9.99998e-06
1e-05
1e-05
9.99999e-06
9.99999e-06
1e-05
1e-05
9.99999e-06
1e-05
1e-05
9.99999e-06
1e-05
1e-05
1e-05
9.99999e-06
9.99998e-06
1e-05
1.00001e-05
1e-05
1e-05
1e-05
1e-05
9.99999e-06
9.99999e-06
1e-05
1.00001e-05
1e-05
1e-05
1e-05
1e-05
1e-05
1e-05
1e-05
1.00001e-05
1e-05
1e-05
1e-05
1e-05
1e-05
9.99999e-06
1e-05
1.00001e-05
1e-05
1e-05
1e-05
1e-05
1e-05
9.99998e-06
1e-05
1.00001e-05
1.00001e-05
1.00001e-05
1e-05
1.00001e-05
1.00001e-05
1.00001e-05
1e-05
1e-05
1e-05
1e-05
1e-05
1e-05
1e-05
1.00001e-05
1.00001e-05
1.00001e-05
1e-05
1e-05
1e-05
1e-05
9.99997e-06
1e-05
1.00001e-05
1.00001e-05
1.00001e-05
1.00001e-05
1.00001e-05
1e-05
1e-05
1e-05
1e-05
1.00001e-05
1.00001e-05
1e-05
1e-05
1.00001e-05
1e-05
1e-05
1.00001e-05
1.00001e-05
1.00001e-05
1.00001e-05
1.00001e-05
1e-05
1e-05
1e-05
1e-05
1e-05
1e-05
1.00001e-05
1.00001e-05
1.00001e-05
1e-05
1.00001e-05
1.00001e-05
1.00001e-05
1.00001e-05
1.00001e-05
1.00001e-05
1.00001e-05
1.00001e-05
1.00001e-05
1e-05
1.00001e-05
1.00001e-05
1.00001e-05
1.00001e-05
1.00001e-05
1.00001e-05
1.00001e-05
1.00001e-05
1.00001e-05
1.00001e-05
1.00001e-05
1.00001e-05
1.00001e-05
1.00001e-05
1.00001e-05
1.00001e-05
1.00001e-05
1.00001e-05
1.00001e-05
1.00001e-05
1.00001e-05
1.00001e-05
1.00001e-05
1.00001e-05
1.00001e-05
1.00001e-05
1.00001e-05
1.00001e-05
1.00001e-05
1.00001e-05
1.00001e-05
1e-05
1e-05
1.00001e-05
1.00001e-05
1.00001e-05
1.00001e-05
1.00001e-05
1.00001e-05
1e-05
1e-05
1.00001e-05
1.00001e-05
1.00001e-05
1.00001e-05
1.00001e-05
1.00001e-05
1.00001e-05
1.00001e-05
1.00001e-05
1.00001e-05
1.00001e-05
1.00001e-05
1.00001e-05
1.00001e-05
1.00001e-05
1.00001e-05
1.00001e-05
1.00001e-05
1.00001e-05
1.00001e-05
1.00001e-05
1.00001e-05
1.00001e-05
1.00001e-05
1.00001e-05
1.00001e-05
1.00001e-05
1.00001e-05
1.00001e-05
1.00001e-05
1.00001e-05
1.00001e-05
1.00001e-05
1.00001e-05
1.00001e-05
1.00001e-05
1.00001e-05
1.00001e-05
1.00001e-05
1.00001e-05
1.00001e-05
1.00001e-05
1.00001e-05
1.00001e-05
1.00001e-05
1.00001e-05
1.00001e-05
1.00001e-05
1.00001e-05
1.00001e-05
1.00001e-05
1.00002e-05
1.00002e-05
1.00001e-05
1.00001e-05
1.00001e-05
1.00001e-05
1.00001e-05
1.00001e-05
1.00001e-05
1.00002e-05
1.00001e-05
1.00001e-05
1.00001e-05
1.00001e-05
1.00001e-05
1.00001e-05
1.00002e-05
1.00002e-05
1.00002e-05
1.00001e-05
1.00001e-05
1.00001e-05
1.00001e-05
1.00001e-05
1.00001e-05
1.00002e-05
1.00001e-05
1.00001e-05
1.00001e-05
1.00002e-05
1.00001e-05
1.00001e-05
1.00001e-05
1.00001e-05
1.00001e-05
1.00001e-05
1.00001e-05
1.00002e-05
1.00001e-05
1.00001e-05
1.00001e-05
1.00002e-05
1.00002e-05
1.00002e-05
1.00001e-05
1.00001e-05
1.00001e-05
1.00002e-05
1.00002e-05
1.00002e-05
1.00001e-05
1.00001e-05
1.00001e-05
1.00001e-05
1.00001e-05
1.00001e-05
1.00002e-05
1.00002e-05
1.00001e-05
1.00001e-05
1.00001e-05
1.00001e-05
1.00001e-05
1.00001e-05
1.00001e-05
1.00001e-05
1.00001e-05
1.00001e-05
1.00002e-05
1.00002e-05
1.00002e-05
1.00001e-05
1.00001e-05
1.00001e-05
1.00001e-05
1.00001e-05
1.00001e-05
1.00001e-05
1.00001e-05
1.00002e-05
1.00002e-05
1.00001e-05
1.00001e-05
1.00001e-05
1.00001e-05
1.00001e-05
1.00001e-05
1.00001e-05
1.00001e-05
1.00002e-05
1.00002e-05
1.00002e-05
1.00001e-05
1.00001e-05
1.00001e-05
1.00002e-05
1.00001e-05
1.00002e-05
1.00001e-05
1.00001e-05
1.00001e-05
1.00001e-05
1.00002e-05
1.00001e-05
1.00001e-05
1.00001e-05
1.00001e-05
1.00001e-05
1.00001e-05
1.00002e-05
1.00002e-05
1.00001e-05
1.00001e-05
1.00001e-05
1.00001e-05
1.00001e-05
1.00001e-05
1.00001e-05
1.00001e-05
1.00001e-05
1.00001e-05
1.00001e-05
1.00002e-05
1.00001e-05
1.00001e-05
1.00001e-05
1.00002e-05
1.00001e-05
1.00001e-05
1.00001e-05
1.00001e-05
1.00001e-05
1.00001e-05
1.00001e-05
1.00001e-05
1.00001e-05
1.00001e-05
1.00001e-05
1.00001e-05
1.00001e-05
1.00001e-05
1.00001e-05
1.00002e-05
1.00001e-05
1.00001e-05
1.00001e-05
1.00001e-05
1.00001e-05
1.00001e-05
1.00001e-05
1.00002e-05
1.00001e-05
1.00001e-05
1.00001e-05
1.00002e-05
1.00001e-05
1.00001e-05
1.00001e-05
1.00002e-05
1.00001e-05
1.00001e-05
1.00001e-05
1.00002e-05
1.00001e-05
1.00001e-05
1.00001e-05
1.00002e-05
1.00002e-05
1.00001e-05
1.00001e-05
1.00002e-05
1.00001e-05
1.00001e-05
1.00001e-05
1.00002e-05
1.00001e-05
1.00001e-05
1.00001e-05
1.00002e-05
1.00001e-05
1.00001e-05
1.00001e-05
1.00002e-05
1.00001e-05
1.00001e-05
1.00001e-05
1.00002e-05
1.00001e-05
1.00001e-05
1.00001e-05
1.00002e-05
1.00002e-05
1.00002e-05
1.00002e-05
1.00002e-05
1.00001e-05
1.00001e-05
1.00001e-05
1.00002e-05
1.00001e-05
1.00001e-05
1.00002e-05
1.00002e-05
1.00001e-05
1.00001e-05
1.00001e-05
1.00001e-05
1.00001e-05
1.00002e-05
1.00002e-05
1.00002e-05
1.00002e-05
1.00002e-05
1.00002e-05
1.00002e-05
1.00002e-05
1.00002e-05
1.00001e-05
1.00001e-05
1.00001e-05
1.00001e-05
1.00002e-05
1.00002e-05
1.00001e-05
1.00002e-05
1.00002e-05
1.00002e-05
1.00002e-05
1.00002e-05
1.00002e-05
1.00001e-05
1.00001e-05
1.00001e-05
1.00001e-05
1.00001e-05
1.00001e-05
1.00002e-05
1.00002e-05
1.00002e-05
1.00002e-05
1.00001e-05
1.00001e-05
1.00002e-05
1.00002e-05
1.00002e-05
1.00002e-05
1.00002e-05
1.00002e-05
1.00002e-05
1.00002e-05
1.00002e-05
1.00002e-05
1.00002e-05
1.00002e-05
1.00002e-05
1.00002e-05
1.00002e-05
1.00002e-05
1.00002e-05
1.00002e-05
1.00002e-05
1.00002e-05
1.00002e-05
1.00002e-05
1.00002e-05
1.00001e-05
1.00001e-05
1.00001e-05
1.00001e-05
1.00001e-05
1.00001e-05
1.00001e-05
1.00001e-05
1.00001e-05
1.00001e-05
1.00001e-05
1.00002e-05
1.00002e-05
1.00002e-05
1.00002e-05
1.00002e-05
1.00001e-05
1.00001e-05
1.00001e-05
1.00001e-05
1.00002e-05
1.00002e-05
1.00001e-05
1.00001e-05
1.00001e-05
1.00001e-05
1.00001e-05
1.00001e-05
1.00002e-05
1.00002e-05
1.00002e-05
1.00001e-05
1.00001e-05
1.00001e-05
1.00001e-05
1.00001e-05
1.00001e-05
1.00001e-05
1.00001e-05
1.00001e-05
1.00001e-05
1.00001e-05
1.00001e-05
1.00001e-05
1.00001e-05
1.00001e-05
1.00001e-05
1.00001e-05
1.00001e-05
1.00001e-05
1.00001e-05
1.00001e-05
1.00001e-05
1.00001e-05
1.00001e-05
1.00001e-05
1.00001e-05
1.00001e-05
1.00001e-05
1.00001e-05
1.00001e-05
1.00001e-05
1.00002e-05
1.00001e-05
1.00001e-05
1.00001e-05
1.00001e-05
1.00001e-05
1.00001e-05
1.00001e-05
1.00002e-05
1.00001e-05
1.00001e-05
1.00001e-05
1.00001e-05
1.00001e-05
1.00001e-05
1.00001e-05
1.00001e-05
1.00001e-05
1.00001e-05
1.00001e-05
1.00001e-05
1.00001e-05
1.00001e-05
1.00001e-05
1.00001e-05
1.00001e-05
1.00001e-05
1.00001e-05
1.00001e-05
1.00001e-05
1.00001e-05
1.00001e-05
1.00001e-05
1.00001e-05
1.00001e-05
1.00001e-05
1.00002e-05
1.00001e-05
1.00001e-05
1.00001e-05
1.00002e-05
1.00001e-05
1e-05
1e-05
1.00001e-05
1.00001e-05
1.00001e-05
1.00001e-05
1.00002e-05
1.00001e-05
1.00001e-05
1.00001e-05
1.00001e-05
1.00001e-05
1.00001e-05
1.00001e-05
1.00002e-05
1.00001e-05
1e-05
1e-05
1.00001e-05
1.00001e-05
1.00001e-05
1.00001e-05
1.00001e-05
1.00001e-05
1.00001e-05
1.00001e-05
1.00002e-05
1.00001e-05
1.00002e-05
1.00001e-05
1.00001e-05
1.00001e-05
1.00001e-05
1.00001e-05
1.00001e-05
1.00001e-05
1.00001e-05
1.00001e-05
1.00001e-05
1.00001e-05
1.00001e-05
1.00001e-05
1.00001e-05
1.00001e-05
1.00001e-05
1.00001e-05
1.00001e-05
1.00001e-05
1.00001e-05
1.00001e-05
1.00001e-05
1.00001e-05
1.00001e-05
1.00001e-05
1.00001e-05
1.00001e-05
1.00001e-05
1.00001e-05
1.00001e-05
1.00001e-05
1.00001e-05
1.00001e-05
1.00002e-05
1.00001e-05
1.00001e-05
1.00001e-05
1.00001e-05
1.00001e-05
1.00001e-05
1.00001e-05
1.00001e-05
1.00001e-05
1.00001e-05
1.00001e-05
1.00001e-05
1.00001e-05
1.00001e-05
1.00001e-05
1.00001e-05
1.00001e-05
1.00001e-05
1.00001e-05
1.00001e-05
1.00001e-05
1.00001e-05
1.00001e-05
1.00001e-05
1.00001e-05
1.00001e-05
1.00001e-05
1.00001e-05
1.00001e-05
1.00001e-05
1.00001e-05
1.00002e-05
1.00001e-05
1.00001e-05
1.00001e-05
1.00001e-05
1e-05
1.00001e-05
1.00001e-05
1.00001e-05
1.00001e-05
1.00001e-05
1.00001e-05
1.00001e-05
1.00001e-05
1.00001e-05
1.00001e-05
1.00001e-05
1.00001e-05
1.00001e-05
1.00001e-05
1.00001e-05
1.00001e-05
1.00001e-05
1.00001e-05
1.00001e-05
1e-05
1.00001e-05
1.00001e-05
1.00001e-05
1.00001e-05
1.00001e-05
1.00001e-05
1.00001e-05
1.00001e-05
1.00001e-05
1e-05
1e-05
1e-05
1.00001e-05
1.00001e-05
1.00001e-05
1.00001e-05
1.00001e-05
1e-05
1e-05
1.00001e-05
1e-05
1e-05
1.00001e-05
1.00001e-05
1.00001e-05
1e-05
1e-05
1.00001e-05
1e-05
1e-05
1e-05
1.00001e-05
1.00001e-05
1.00001e-05
1e-05
1.00001e-05
1.00001e-05
1e-05
1e-05
1.00001e-05
1.00001e-05
1e-05
1e-05
1.00001e-05
1.00001e-05
1e-05
1e-05
1e-05
1e-05
1e-05
1e-05
1.00001e-05
1.00001e-05
1e-05
1e-05
1.00001e-05
1.00001e-05
1.00001e-05
1.00001e-05
1.00001e-05
1e-05
9.99998e-06
9.99998e-06
1e-05
1e-05
1e-05
1e-05
1e-05
1e-05
1e-05
1e-05
1.00001e-05
1.00001e-05
1e-05
1e-05
1e-05
1e-05
1e-05
1e-05
1.00001e-05
1.00001e-05
1e-05
1e-05
1e-05
1e-05
1e-05
1e-05
1e-05
1e-05
1e-05
1e-05
1e-05
1e-05
1e-05
1e-05
1.00001e-05
1.00001e-05
1.00001e-05
1.00001e-05
1.00001e-05
1.00001e-05
1e-05
1e-05
1e-05
1.00001e-05
1e-05
9.99999e-06
9.99999e-06
1e-05
1e-05
1.00001e-05
1.00001e-05
1.00001e-05
1.00001e-05
1.00001e-05
1.00001e-05
1.00001e-05
1e-05
1e-05
1e-05
1e-05
1.00001e-05
1.00001e-05
1.00001e-05
1.00001e-05
1.00001e-05
1e-05
1e-05
1e-05
1e-05
1e-05
1.00001e-05
1.00001e-05
1.00001e-05
1.00001e-05
1.00001e-05
1e-05
1e-05
9.99999e-06
1e-05
1e-05
1.00001e-05
1.00001e-05
1.00001e-05
1.00001e-05
1.00001e-05
1.00001e-05
1.00001e-05
1.00001e-05
1.00001e-05
1.00001e-05
1.00001e-05
1e-05
1e-05
1e-05
1.00001e-05
1.00001e-05
1.00001e-05
1e-05
1e-05
1e-05
1e-05
1.00001e-05
1.00001e-05
1.00001e-05
1.00001e-05
1e-05
1e-05
9.99996e-06
9.99996e-06
9.99998e-06
1e-05
1e-05
1.00001e-05
1.00001e-05
1.00001e-05
1.00001e-05
1e-05
1e-05
1e-05
1e-05
9.99998e-06
9.99997e-06
9.99997e-06
9.99993e-06
9.99995e-06
1e-05
1e-05
1.00001e-05
1e-05
1e-05
1.00001e-05
1.00001e-05
1e-05
9.99996e-06
9.99995e-06
1e-05
1e-05
1e-05
1e-05
1e-05
1e-05
1e-05
1e-05
1e-05
1e-05
9.99995e-06
9.99996e-06
1e-05
1e-05
9.99999e-06
9.99999e-06
1e-05
1e-05
9.99999e-06
9.99999e-06
1e-05
1e-05
9.99997e-06
9.99997e-06
1e-05
1e-05
1e-05
1e-05
1e-05
1e-05
9.99998e-06
9.99998e-06
1e-05
1e-05
9.99998e-06
9.99998e-06
1e-05
1e-05
9.99998e-06
9.99998e-06
1e-05
1e-05
9.99998e-06
9.99998e-06
1e-05
1e-05
9.99998e-06
9.99998e-06
1e-05
1e-05
9.99998e-06
9.99998e-06
1e-05
9.99999e-06
9.99995e-06
9.99995e-06
9.99997e-06
9.99998e-06
9.99997e-06
9.99999e-06
1e-05
1e-05
1e-05
1e-05
1e-05
1e-05
9.99998e-06
9.99998e-06
1e-05
9.99998e-06
9.99994e-06
9.99993e-06
9.99996e-06
9.99997e-06
9.99998e-06
1e-05
1e-05
1e-05
9.99999e-06
9.99997e-06
9.99998e-06
9.99997e-06
9.99995e-06
9.99996e-06
1e-05
9.99999e-06
9.99996e-06
9.99996e-06
9.99999e-06
1e-05
9.99999e-06
1e-05
1e-05
1e-05
1e-05
9.99999e-06
1e-05
1e-05
1e-05
9.99997e-06
9.99996e-06
9.99996e-06
9.99999e-06
9.99998e-06
1e-05
1e-05
1.00001e-05
1.00001e-05
1e-05
9.9999e-06
1.00002e-05
1.00009e-05
1.00003e-05
9.99657e-06
9.99345e-06
9.99964e-06
1.00183e-05
1.00413e-05
1.00452e-05
1.0014e-05
9.95064e-06
9.8601e-06
9.76658e-06
9.68501e-06
9.63415e-06
9.61481e-06
9.64357e-06
9.71269e-06
9.81037e-06
9.9408e-06
1.00814e-05
1.01918e-05
1.02491e-05
1.02654e-05
1.02472e-05
1.02243e-05
1.0231e-05
1.02828e-05
1.04112e-05
1.06026e-05
1.08225e-05
1.10879e-05
1.13443e-05
1.15833e-05
1.17104e-05
1.17561e-05
1.17986e-05
1.17757e-05
1.16676e-05
1.1574e-05
1.12337e-05
1.08361e-05
1.05025e-05
1.00864e-05
9.81228e-06
9.56251e-06
9.30372e-06
9.03548e-06
8.85926e-06
8.84217e-06
8.9846e-06
9.14601e-06
9.07161e-06
8.7714e-06
9.33324e-06
1.29765e-05
1.94194e-05
2.63553e-05
3.21612e-05
3.56214e-05
3.44322e-05
2.90103e-05
2.4216e-05
3.07564e-05
4.43734e-05
5.46215e-05
6.22184e-05
6.80662e-05
7.13012e-05
7.25106e-05
7.27296e-05
7.26916e-05
7.23322e-05
7.17172e-05
7.08897e-05
7.00098e-05
6.95245e-05
6.91442e-05
6.89861e-05
6.89748e-05
6.91392e-05
6.92943e-05
6.94109e-05
6.94746e-05
6.95204e-05
6.95515e-05
6.96154e-05
6.95889e-05
6.95033e-05
6.94463e-05
6.943e-05
6.94247e-05
6.94703e-05
6.95616e-05
6.96312e-05
6.96404e-05
6.96286e-05
6.96203e-05
6.95858e-05
6.94998e-05
6.94279e-05
6.94017e-05
6.939e-05
6.93669e-05
6.93805e-05
6.94344e-05
6.94765e-05
6.94712e-05
6.94697e-05
6.94945e-05
6.95103e-05
6.94837e-05
6.94677e-05
6.94749e-05
6.94593e-05
6.93862e-05
6.93292e-05
6.93211e-05
6.93223e-05
6.92874e-05
6.92631e-05
6.92588e-05
6.92321e-05
6.91689e-05
6.91539e-05
6.92198e-05
6.93159e-05
6.93898e-05
6.94669e-05
6.95455e-05
6.95769e-05
6.95317e-05
6.9507e-05
6.95523e-05
6.96207e-05
6.96312e-05
6.96463e-05
6.9668e-05
6.96433e-05
6.95486e-05
6.9468e-05
6.94542e-05
6.94911e-05
6.95398e-05
6.96292e-05
6.97364e-05
6.97733e-05
6.96869e-05
6.95656e-05
6.94788e-05
6.94335e-05
6.9413e-05
6.94606e-05
6.95635e-05
6.96444e-05
6.9648e-05
6.96333e-05
6.96267e-05
6.95911e-05
6.94988e-05
6.94385e-05
6.9461e-05
6.9538e-05
6.96226e-05
6.97339e-05
6.98481e-05
6.98868e-05
6.98096e-05
6.97067e-05
6.96253e-05
6.95523e-05
6.94681e-05
6.94444e-05
6.95055e-05
6.9597e-05
6.96769e-05
6.97656e-05
6.98459e-05
6.98543e-05
6.97909e-05
6.97544e-05
6.98093e-05
6.99284e-05
7.00687e-05
7.0239e-05
7.02741e-05
7.00005e-05
6.94685e-05
6.88552e-05
6.83142e-05
6.82042e-05
6.85915e-05
6.9824e-05
7.17026e-05
7.38106e-05
7.50845e-05
7.54999e-05
7.40918e-05
6.83955e-05
5.66474e-05
3.87566e-05
2.59969e-05
2.33345e-05
2.55249e-05
2.759e-05
2.81883e-05
2.90137e-05
2.95874e-05
2.90942e-05
2.66204e-05
2.16321e-05
1.5839e-05
1.12558e-05
8.94498e-06
8.08628e-06
8.37196e-06
8.94456e-06
9.30882e-06
9.43293e-06
9.4053e-06
9.34175e-06
9.35359e-06
9.42586e-06
9.55049e-06
9.71017e-06
9.86863e-06
9.93858e-06
9.95542e-06
9.98527e-06
1.00592e-05
1.00431e-05
9.93225e-06
9.87476e-06
9.73593e-06
9.65409e-06
9.57522e-06
9.55351e-06
9.55557e-06
9.61529e-06
9.71829e-06
9.85072e-06
9.96928e-06
1.00411e-05
1.00437e-05
9.97029e-06
9.8643e-06
9.74837e-06
9.65352e-06
9.59856e-06
9.59166e-06
9.61745e-06
9.65907e-06
9.70959e-06
9.75958e-06
9.81038e-06
9.86718e-06
9.92798e-06
9.98543e-06
1.00294e-05
1.00514e-05
1.00524e-05
1.00355e-05
1.00136e-05
9.99687e-06
9.99154e-06
9.99492e-06
9.99969e-06
1.00014e-05
1.00007e-05
9.99994e-06
9.99984e-06
9.99997e-06
1e-05
1e-05
1e-05
1.00001e-05
1.00001e-05
1.00001e-05
1.00001e-05
1.00001e-05
1e-05
9.99995e-06
9.99991e-06
9.99993e-06
9.99997e-06
1e-05
1e-05
1e-05
1e-05
1.00001e-05
1e-05
1.00001e-05
1.00001e-05
1e-05
1e-05
9.99999e-06
1e-05
9.99999e-06
9.99996e-06
9.99996e-06
1e-05
1e-05
9.99999e-06
9.99996e-06
9.99997e-06
9.99997e-06
9.99997e-06
9.99998e-06
1e-05
9.99997e-06
9.99994e-06
9.99995e-06
1e-05
1e-05
1e-05
1e-05
1.00001e-05
1e-05
1e-05
9.99999e-06
1e-05
1e-05
9.99998e-06
9.99995e-06
9.99997e-06
9.99995e-06
9.99993e-06
9.99995e-06
1e-05
1e-05
1.00001e-05
1.00001e-05
1.00001e-05
1.00001e-05
1.00001e-05
1e-05
1e-05
9.99997e-06
9.99993e-06
9.99993e-06
9.99997e-06
9.99998e-06
9.99998e-06
1e-05
1e-05
1e-05
9.99998e-06
9.99996e-06
9.99998e-06
9.99999e-06
9.99998e-06
1e-05
1e-05
1e-05
1e-05
1e-05
1e-05
1e-05
9.99998e-06
1e-05
1e-05
1.00001e-05
1e-05
1e-05
1e-05
1e-05
9.99999e-06
9.99996e-06
9.99996e-06
9.99995e-06
9.99993e-06
9.99994e-06
1e-05
1e-05
1e-05
1.00001e-05
1.00001e-05
1.00001e-05
1.00001e-05
1e-05
9.99998e-06
9.99993e-06
9.99994e-06
1e-05
1.00001e-05
1.00001e-05
1.00001e-05
1.00001e-05
1.00001e-05
1.00001e-05
1.00001e-05
1.00001e-05
1.00001e-05
1e-05
9.99998e-06
9.99991e-06
9.99987e-06
9.99987e-06
9.99994e-06
1e-05
1.00001e-05
1.00001e-05
1e-05
9.99999e-06
1e-05
1e-05
1.00001e-05
1.00001e-05
1.00001e-05
1e-05
1e-05
9.99996e-06
9.99997e-06
9.99999e-06
1e-05
1.00001e-05
1.00001e-05
1.00001e-05
1.00001e-05
1.00001e-05
1e-05
9.99996e-06
1e-05
1.00001e-05
1.00001e-05
1.00001e-05
1.00001e-05
1.00001e-05
1.00001e-05
1.00001e-05
1.00001e-05
1.00001e-05
1e-05
1e-05
1e-05
1.00001e-05
1.00001e-05
1.00001e-05
1.00001e-05
1.00001e-05
1.00001e-05
1e-05
1e-05
9.99998e-06
9.99995e-06
9.99995e-06
9.99993e-06
9.99991e-06
1e-05
1e-05
9.99996e-06
9.99996e-06
9.99994e-06
9.99999e-06
1e-05
1e-05
1e-05
1e-05
1.00001e-05
1.00001e-05
1.00001e-05
1e-05
1e-05
9.99999e-06
9.99996e-06
9.99996e-06
9.99996e-06
1e-05
1e-05
1.00001e-05
1.00001e-05
1.00001e-05
1.00001e-05
1e-05
1e-05
9.99997e-06
9.99994e-06
9.99995e-06
9.99999e-06
1e-05
1.00001e-05
1.00001e-05
1e-05
9.99999e-06
9.99995e-06
9.99996e-06
9.99999e-06
1.00001e-05
1.00001e-05
1e-05
9.99994e-06
9.99992e-06
9.99993e-06
9.99994e-06
9.99995e-06
9.99998e-06
9.99998e-06
9.99999e-06
9.99998e-06
9.99999e-06
9.99998e-06
9.99997e-06
9.99997e-06
1e-05
1e-05
1e-05
9.99998e-06
9.99999e-06
1e-05
1e-05
1e-05
1e-05
9.99995e-06
9.99991e-06
9.9999e-06
9.99994e-06
9.99997e-06
9.99999e-06
1e-05
1e-05
1e-05
1e-05
9.99995e-06
9.9999e-06
9.99989e-06
9.99999e-06
1.00001e-05
1.00001e-05
1.00001e-05
9.99993e-06
9.99987e-06
9.99988e-06
9.99995e-06
1e-05
1.00001e-05
1.00001e-05
1.00001e-05
1e-05
1e-05
1e-05
1.00001e-05
1e-05
9.99998e-06
9.99996e-06
9.99993e-06
9.9999e-06
9.99993e-06
9.99995e-06
9.99999e-06
1e-05
1e-05
1.00001e-05
1.00001e-05
1e-05
1e-05
1.00001e-05
1.00001e-05
1e-05
1e-05
1e-05
1e-05
9.99999e-06
9.99998e-06
1e-05
1.00001e-05
1.00001e-05
1.00001e-05
9.99998e-06
9.99991e-06
9.99986e-06
9.9999e-06
9.99997e-06
1.00001e-05
1.00001e-05
1.00001e-05
1.00001e-05
1.00001e-05
9.99997e-06
9.99994e-06
9.99998e-06
1.00001e-05
1.00001e-05
1.00001e-05
1e-05
9.99997e-06
9.99994e-06
9.99998e-06
9.99999e-06
9.99999e-06
9.99997e-06
9.99999e-06
1e-05
1e-05
9.99999e-06
1e-05
1e-05
1e-05
9.99997e-06
9.99999e-06
1e-05
1.00001e-05
1e-05
9.99996e-06
9.99995e-06
9.99998e-06
9.99999e-06
1e-05
1e-05
1.00001e-05
1.00001e-05
1.00001e-05
1.00001e-05
1e-05
9.99991e-06
9.99987e-06
9.99992e-06
9.99998e-06
1e-05
1e-05
1.00001e-05
1.00001e-05
1.00001e-05
1.00001e-05
1.00001e-05
1.00001e-05
1e-05
1e-05
9.99998e-06
9.99995e-06
9.99998e-06
9.99996e-06
9.99922e-06
9.99678e-06
9.99378e-06
1.00027e-05
1.00508e-05
1.01344e-05
1.01361e-05
9.71571e-06
9.01729e-06
9.02124e-06
1.07655e-05
1.40731e-05
1.77917e-05
2.09876e-05
2.39584e-05
2.67823e-05
2.95742e-05
3.18956e-05
3.38395e-05
3.53302e-05
3.61806e-05
3.74155e-05
3.9606e-05
4.41628e-05
4.9216e-05
5.33864e-05
5.65983e-05
5.85908e-05
5.96055e-05
5.99913e-05
5.95638e-05
5.84316e-05
5.7069e-05
5.57492e-05
5.42638e-05
5.29326e-05
5.1977e-05
5.14961e-05
5.14182e-05
5.15723e-05
5.17645e-05
5.20417e-05
5.25981e-05
5.34009e-05
5.45248e-05
5.59178e-05
5.75067e-05
5.91419e-05
6.11515e-05
6.30502e-05
6.50549e-05
6.70538e-05
6.9604e-05
7.21837e-05
7.53104e-05
7.87047e-05
8.28926e-05
8.72506e-05
9.21787e-05
9.71753e-05
0.000102661
0.000107586
0.000111529
0.000114037
0.00011463
0.000113711
0.000110343
0.000105872
0.000101307
9.71418e-05
9.13789e-05
8.47592e-05
8.41452e-05
9.68277e-05
0.000136004
0.000215797
0.000267815
0.000303001
0.000331933
0.000340041
0.00035821
0.000354199
0.000355403
0.000375943
0.000414973
0.000377678
0.000366436
0.000420437
0.000376437
0.000350958
0.000351191
0.00036277
0.000353449
0.000331958
0.000347357
0.000377492
0.000374433
0.000366783
0.000349441
0.000336842
0.00036865
0.000380966
0.000357162
0.000394587
0.000334599
0.000346163
0.000346828
0.000314953
0.000347111
0.000342625
0.000348312
0.000378166
0.000367341
0.000349298
0.000374835
0.000332741
0.000348962
0.000336112
0.000342767
0.000360129
0.000343335
0.000355609
0.000371736
0.000362679
0.000355257
0.000344784
0.00035931
0.00033544
0.000349789
0.000331481
0.000340645
0.000337718
0.00036401
0.000362869
0.000352864
0.00032274
0.000337501
0.000339789
0.000330282
0.00033014
0.000335405
0.000346228
0.000341469
0.000361066
0.000363044
0.000331393
0.000343681
0.000330972
0.000334796
0.000338525
0.000369085
0.000405415
0.000347945
0.000328587
0.000336767
0.000350832
0.000354046
0.000331493
0.000353279
0.000355321
0.000354176
0.000353166
0.000359967
0.000345941
0.000346871
0.000350614
0.000365819
0.000353525
0.000363683
0.000337928
0.000354807
0.000344385
0.00034748
0.000414493
0.000346116
0.000356975
0.000343952
0.000349387
0.000350662
0.000362894
0.00035874
0.000362266
0.000352449
0.000352042
0.000336355
0.000331269
0.000343985
0.000338199
0.000346541
0.00033897
0.000322899
0.00033449
0.000321133
0.000324574
0.000318662
0.000340893
0.000355775
0.000353884
0.000342307
0.000342363
0.000329994
0.000330865
0.000328417
0.000343069
0.000356872
0.000376395
0.000338823
0.000301494
0.000299101
0.000283846
0.000250583
0.000178853
7.46311e-05
4.97616e-05
4.66368e-05
5.41811e-05
6.51533e-05
7.97095e-05
9.1143e-05
0.000100728
0.00010635
0.000110716
0.00011164
0.000111263
0.000109434
0.000106825
0.000102866
9.88744e-05
9.51032e-05
9.13149e-05
8.78372e-05
8.36866e-05
7.98414e-05
7.56638e-05
7.18967e-05
6.77865e-05
6.42213e-05
6.06596e-05
5.76233e-05
5.48172e-05
5.27567e-05
5.09552e-05
4.99863e-05
4.93797e-05
4.92882e-05
4.94091e-05
4.99805e-05
5.07627e-05
5.17305e-05
5.30079e-05
5.44537e-05
5.58663e-05
5.69002e-05
5.78309e-05
5.87931e-05
5.98287e-05
6.04001e-05
6.05206e-05
6.04179e-05
6.02519e-05
5.92285e-05
5.67319e-05
5.2452e-05
4.70464e-05
4.24873e-05
4.01343e-05
3.9057e-05
3.76986e-05
3.55465e-05
3.23041e-05
2.84597e-05
2.41439e-05
1.9672e-05
1.45822e-05
1.03507e-05
8.52934e-06
8.83681e-06
9.47902e-06
9.8562e-06
1.00135e-05
1.00516e-05
1.00234e-05
9.99711e-06
9.99549e-06
9.99901e-06
9.99984e-06
9.99979e-06
9.99983e-06
9.99991e-06
1e-05
1.00001e-05
1.00001e-05
1.00001e-05
1.00001e-05
1.00001e-05
1.00001e-05
1e-05
1e-05
1.00001e-05
1.00001e-05
1.00001e-05
1.00001e-05
1.00001e-05
1.00001e-05
1.00002e-05
1.00002e-05
1.00002e-05
1.00001e-05
1e-05
9.99999e-06
9.99999e-06
1e-05
1.00001e-05
1.00001e-05
1.00001e-05
1.00001e-05
1e-05
9.99999e-06
9.99994e-06
9.9999e-06
9.99988e-06
9.99996e-06
1e-05
1.00001e-05
9.99998e-06
9.99995e-06
9.99998e-06
1e-05
1e-05
1e-05
1e-05
1.00001e-05
1.00001e-05
1e-05
9.99996e-06
9.99994e-06
9.99992e-06
9.99994e-06
9.99997e-06
1e-05
1e-05
1e-05
1.00001e-05
1.00001e-05
1.00001e-05
1e-05
1.00001e-05
1.00001e-05
1.00001e-05
1e-05
1e-05
1e-05
9.99998e-06
1e-05
1.00001e-05
1.00002e-05
1.00002e-05
1.00001e-05
9.99997e-06
9.99993e-06
9.99991e-06
9.9999e-06
9.99994e-06
9.99997e-06
9.99995e-06
9.99993e-06
9.99993e-06
9.99999e-06
1.00001e-05
1.00001e-05
1.00002e-05
1.00002e-05
1.00002e-05
1.00001e-05
1e-05
1e-05