/*--------------------------------*- C++ -*----------------------------------*\
| =========                 |                                                 |
| \\      /  F ield         | foam-extend: Open Source CFD                    |
|  \\    /   O peration     | Version:     4.0                                |
|   \\  /    A nd           | Web:         http://www.foam-extend.org         |
|    \\/     M anipulation  |                                                 |
\*---------------------------------------------------------------------------*/
FoamFile
{
    version     2.0;
    format      ascii;
    class       volScalarField;
    location    "0.007";
    object      h;
}
// * * * * * * * * * * * * * * * * * * * * * * * * * * * * * * * * * * * * * //

dimensions      [0 1 0 0 0 0 0];

internalField   nonuniform List<scalar> 
176451
(
1.00052e-05
1e-05
9.99504e-06
1e-05
1.00004e-05
1.00014e-05
9.99852e-06
9.99906e-06
1.00015e-05
9.99829e-06
9.99921e-06
1.00045e-05
9.99966e-06
1.00006e-05
1.00006e-05
9.99757e-06
1.00014e-05
9.99721e-06
1.00022e-05
9.99948e-06
1.00008e-05
1.00005e-05
9.99928e-06
1.00006e-05
1.00015e-05
1.00006e-05
1.00026e-05
9.99923e-06
9.99829e-06
1.00009e-05
9.99715e-06
9.99991e-06
1.00012e-05
9.99776e-06
9.99838e-06
1.00034e-05
1.00019e-05
1.00018e-05
9.99962e-06
9.99994e-06
9.99855e-06
1.00055e-05
9.99778e-06
9.99956e-06
1.00003e-05
9.99993e-06
1.00003e-05
9.99852e-06
1.00018e-05
1.00016e-05
1.0007e-05
9.99735e-06
9.99996e-06
9.99944e-06
9.99933e-06
1.00013e-05
1.00007e-05
1.00005e-05
9.99818e-06
9.99881e-06
1.00023e-05
9.99953e-06
9.99655e-06
9.99984e-06
9.99837e-06
1.00053e-05
9.99941e-06
1.00011e-05
1.00023e-05
9.99905e-06
9.99889e-06
1.00002e-05
1.00002e-05
1.00028e-05
1.00009e-05
1.00024e-05
9.99956e-06
1.00007e-05
1.00008e-05
9.99444e-06
9.99842e-06
1.00073e-05
9.99985e-06
9.99716e-06
9.99845e-06
9.99952e-06
9.99938e-06
9.99728e-06
1.00017e-05
1.00004e-05
1.00035e-05
9.99775e-06
1.00057e-05
1e-05
1.00009e-05
9.99877e-06
9.99724e-06
1.00003e-05
1.00034e-05
9.99806e-06
1.00025e-05
9.99824e-06
1.00016e-05
9.99716e-06
1.00013e-05
9.99916e-06
1.00034e-05
1.00022e-05
1.00004e-05
1.00031e-05
1.00045e-05
9.99853e-06
1.00025e-05
9.9991e-06
9.99983e-06
1.00052e-05
1.00011e-05
9.99774e-06
1.00033e-05
1.00013e-05
9.99981e-06
9.99772e-06
9.99767e-06
9.9958e-06
1.00031e-05
1.00023e-05
9.99695e-06
1.00018e-05
9.9971e-06
1.00009e-05
1.00019e-05
1.00051e-05
9.99883e-06
1.00004e-05
1.00019e-05
9.99844e-06
1.00067e-05
9.99646e-06
1.00004e-05
9.99952e-06
1.00009e-05
9.99704e-06
1.00024e-05
1.00026e-05
9.99737e-06
9.99988e-06
1.00002e-05
1.00015e-05
1.00021e-05
9.99663e-06
1.00057e-05
1.00006e-05
9.99885e-06
1.00012e-05
9.9962e-06
1.00006e-05
9.99779e-06
9.99911e-06
1.00023e-05
9.99899e-06
1.00018e-05
9.99961e-06
9.99879e-06
1e-05
9.99726e-06
1.00025e-05
1.00019e-05
1.00014e-05
9.99671e-06
1.00033e-05
9.99825e-06
9.99609e-06
1.00031e-05
1.00009e-05
1.00018e-05
9.99795e-06
1.00072e-05
9.99776e-06
1.00006e-05
9.99825e-06
1.00004e-05
1.00016e-05
9.99649e-06
9.9984e-06
9.99918e-06
1e-05
9.99945e-06
1.00001e-05
1.00037e-05
1.00008e-05
9.99705e-06
9.99556e-06
9.99404e-06
9.9929e-06
9.99245e-06
9.99289e-06
9.99414e-06
9.99582e-06
9.99765e-06
9.99933e-06
1.00007e-05
1.00018e-05
1.00027e-05
1.00034e-05
1.00039e-05
1.00042e-05
1.00042e-05
1.00038e-05
1.00032e-05
1.00022e-05
1.00011e-05
1.00001e-05
9.99932e-06
9.99883e-06
9.99872e-06
9.99899e-06
9.99955e-06
1.00002e-05
1.00009e-05
1.00014e-05
1.00017e-05
1.00016e-05
1.00013e-05
1.00008e-05
1.00003e-05
1.00001e-05
1.00004e-05
1.0001e-05
1.0002e-05
1.0003e-05
1.00038e-05
1.00041e-05
1.00039e-05
1.00034e-05
1.00025e-05
1.00017e-05
1.00011e-05
1.00006e-05
1.00004e-05
1.00002e-05
1e-05
9.99984e-06
9.99974e-06
9.99975e-06
9.99989e-06
1.00001e-05
1.00004e-05
1.00006e-05
1.00008e-05
1.00008e-05
1.0001e-05
1.00012e-05
1.00016e-05
1.00022e-05
1.0003e-05
1.00037e-05
1.00043e-05
1.00046e-05
1.00045e-05
1.00039e-05
1.0003e-05
1.00018e-05
1.00005e-05
9.99941e-06
9.99855e-06
9.99794e-06
9.99771e-06
9.99764e-06
9.99761e-06
9.99756e-06
9.99759e-06
9.99772e-06
9.99808e-06
9.99875e-06
9.99966e-06
1.00006e-05
1.00012e-05
1.00014e-05
1.00013e-05
1.00009e-05
1.00005e-05
1.00002e-05
1.00001e-05
1.00003e-05
1.00004e-05
1.00005e-05
1.00005e-05
1.00003e-05
9.99987e-06
9.99932e-06
9.99882e-06
9.99835e-06
9.99799e-06
9.99778e-06
9.99775e-06
9.99781e-06
9.99789e-06
9.99806e-06
9.99836e-06
9.99869e-06
9.99899e-06
9.99922e-06
9.99941e-06
9.99949e-06
9.99953e-06
9.99964e-06
9.99994e-06
1.00004e-05
1.00008e-05
1.00012e-05
1.00014e-05
1.00012e-05
1.00005e-05
9.99936e-06
9.99809e-06
9.99683e-06
9.99588e-06
9.99546e-06
9.99572e-06
9.99647e-06
9.99746e-06
9.99855e-06
9.99953e-06
1.00003e-05
1.00008e-05
1.0001e-05
1.00011e-05
1.00009e-05
1.00006e-05
1.00002e-05
9.99982e-06
9.99951e-06
9.9994e-06
9.9995e-06
9.99985e-06
1.00003e-05
1.00009e-05
1.00014e-05
1.00017e-05
1.00018e-05
1.00017e-05
1.00014e-05
1.0001e-05
1.00005e-05
1.00001e-05
9.99968e-06
9.9992e-06
9.99871e-06
9.99829e-06
9.99803e-06
9.99793e-06
9.99809e-06
9.9985e-06
9.99917e-06
1e-05
1.00012e-05
1.00026e-05
1.0004e-05
1.00052e-05
1.00057e-05
1.00052e-05
1.00038e-05
1.00017e-05
9.99923e-06
9.99718e-06
9.99587e-06
9.9954e-06
9.9957e-06
9.9965e-06
9.99745e-06
9.9982e-06
9.99862e-06
9.99872e-06
9.99861e-06
9.99842e-06
9.99838e-06
9.99861e-06
9.99912e-06
9.99976e-06
1.00005e-05
1.00011e-05
1.00016e-05
1.00019e-05
1.00021e-05
1.00021e-05
1.00021e-05
1.0002e-05
1.00017e-05
1.00013e-05
1.00009e-05
1.00003e-05
9.99974e-06
9.99924e-06
9.99879e-06
9.99833e-06
9.9979e-06
9.99756e-06
9.99728e-06
9.99702e-06
9.99685e-06
9.99688e-06
9.99719e-06
9.99785e-06
9.99892e-06
1.00003e-05
1.00019e-05
1.00032e-05
1.0004e-05
1.00041e-05
1.00034e-05
1.00022e-05
1.00007e-05
9.99929e-06
9.99826e-06
9.99771e-06
9.99773e-06
9.99827e-06
9.99921e-06
1.00002e-05
1.00011e-05
1.00017e-05
1.00017e-05
1.00013e-05
1.00006e-05
9.99995e-06
9.99956e-06
9.99957e-06
1.00001e-05
1.0001e-05
1.00021e-05
1.00032e-05
1.00041e-05
1.00048e-05
1.00051e-05
1.0005e-05
1.00045e-05
1.00037e-05
1.00028e-05
1.00016e-05
1.00004e-05
9.99947e-06
9.99887e-06
9.99853e-06
9.99849e-06
9.99862e-06
9.99874e-06
9.99872e-06
9.9987e-06
9.99872e-06
9.99877e-06
9.99882e-06
9.9989e-06
9.99893e-06
9.99884e-06
9.99856e-06
9.99826e-06
9.99806e-06
9.99805e-06
9.99815e-06
9.99847e-06
9.99895e-06
9.99952e-06
1.00001e-05
1.00006e-05
1.0001e-05
1.00013e-05
1.00011e-05
1.00008e-05
1.00002e-05
9.99962e-06
9.99903e-06
9.99873e-06
9.99877e-06
9.99914e-06
9.99967e-06
1.00002e-05
1.00007e-05
1.0001e-05
1.00009e-05
1.00007e-05
1.00004e-05
1.00001e-05
1e-05
1.00001e-05
1.00002e-05
1.00003e-05
1.00002e-05
1.00001e-05
1e-05
1e-05
1.00002e-05
1.00007e-05
1.00012e-05
1.00017e-05
1.00018e-05
1.00015e-05
1.00008e-05
9.99979e-06
9.99853e-06
9.99738e-06
9.99657e-06
9.99626e-06
9.99655e-06
9.99736e-06
9.99848e-06
9.99964e-06
1.00007e-05
1.00014e-05
1.00018e-05
1.00018e-05
1.00016e-05
1.00013e-05
1.00009e-05
1.00005e-05
9.99999e-06
9.99956e-06
9.99922e-06
9.99897e-06
9.99886e-06
9.99906e-06
9.99955e-06
1.00002e-05
1.00011e-05
1.00019e-05
1.00027e-05
1.00033e-05
1.00036e-05
1.00034e-05
1.00028e-05
1.00019e-05
1.00008e-05
9.99986e-06
9.99921e-06
9.99899e-06
9.99915e-06
9.99947e-06
9.9998e-06
1.00001e-05
1.00002e-05
1.00002e-05
1.00001e-05
1.00001e-05
1e-05
9.99995e-06
9.99995e-06
1.00002e-05
1.00007e-05
1.00016e-05
1.00027e-05
1.00038e-05
1.00046e-05
1.00047e-05
1.00039e-05
1.00025e-05
1.00006e-05
9.99856e-06
9.99681e-06
9.9956e-06
9.99493e-06
9.99473e-06
9.99493e-06
9.99553e-06
9.99655e-06
9.99787e-06
9.99946e-06
1.00011e-05
1.00024e-05
1.00031e-05
1.00029e-05
1.00021e-05
1.00009e-05
9.99967e-06
9.99874e-06
9.9984e-06
9.99863e-06
9.9992e-06
9.99989e-06
1.00005e-05
1.00008e-05
1.00006e-05
1.00002e-05
9.99955e-06
9.9989e-06
9.99836e-06
9.9981e-06
9.99825e-06
9.99875e-06
9.99942e-06
1.00001e-05
1.00007e-05
1.0001e-05
1.00011e-05
1.0001e-05
1.00008e-05
1.00006e-05
1.00005e-05
1.00003e-05
1.00002e-05
1.00001e-05
9.99993e-06
9.99976e-06
9.99967e-06
9.99968e-06
9.99974e-06
9.9999e-06
1.00001e-05
1.00005e-05
1.00008e-05
1.00011e-05
1.00015e-05
1.00019e-05
1.00021e-05
1.00021e-05
1.0002e-05
1.00017e-05
1.00011e-05
1.00002e-05
9.99926e-06
9.99834e-06
9.99755e-06
9.99704e-06
9.99692e-06
9.9972e-06
9.99777e-06
9.99858e-06
9.99951e-06
1.00004e-05
1.00012e-05
1.00016e-05
1.00016e-05
1.00012e-05
1.00003e-05
9.99926e-06
9.99825e-06
9.99754e-06
9.99726e-06
9.99763e-06
9.99857e-06
9.99984e-06
1.00011e-05
1.0002e-05
1.00024e-05
1.00021e-05
1.00012e-05
1.00002e-05
9.99939e-06
9.99907e-06
9.99919e-06
9.99968e-06
1.00003e-05
1.00008e-05
1.00009e-05
1.00007e-05
1.00001e-05
9.99958e-06
9.999e-06
9.99856e-06
9.99829e-06
9.99815e-06
9.99803e-06
9.99805e-06
9.99827e-06
9.99873e-06
9.99941e-06
1.00003e-05
1.00013e-05
1.00022e-05
1.00029e-05
1.00034e-05
1.00034e-05
1.00033e-05
1.00028e-05
1.00022e-05
1.00014e-05
1.00008e-05
1.00004e-05
1.00002e-05
1.00002e-05
1.00003e-05
1.00003e-05
1.00002e-05
9.99976e-06
9.99918e-06
9.99855e-06
9.99814e-06
9.99801e-06
9.99814e-06
9.99851e-06
9.99899e-06
9.99949e-06
9.99984e-06
1e-05
1.00002e-05
1.00003e-05
1.00004e-05
1.00003e-05
1.00002e-05
1.00001e-05
9.99989e-06
9.99981e-06
9.99992e-06
1.00003e-05
1.00008e-05
1.00012e-05
1.00015e-05
1.00015e-05
1.00012e-05
1.00007e-05
1.00002e-05
9.99987e-06
9.99979e-06
9.99992e-06
1.00002e-05
1.00005e-05
1.00007e-05
1.00008e-05
1.00008e-05
1.00008e-05
1.00007e-05
1.00006e-05
1.00004e-05
1.00001e-05
9.99953e-06
9.99885e-06
9.99826e-06
9.99784e-06
9.99782e-06
9.99817e-06
9.99883e-06
9.99966e-06
1.00004e-05
1.00009e-05
1.00009e-05
1.00005e-05
9.99984e-06
9.99916e-06
9.99859e-06
9.9983e-06
9.99836e-06
9.99874e-06
9.99929e-06
9.99993e-06
1.00006e-05
1.00011e-05
1.00015e-05
1.00017e-05
1.00018e-05
1.00018e-05
1.00016e-05
1.00011e-05
1.00006e-05
9.99999e-06
9.99932e-06
9.99873e-06
9.99834e-06
9.99818e-06
9.99817e-06
9.99833e-06
9.99859e-06
9.99892e-06
9.99919e-06
9.99946e-06
9.99977e-06
1.00001e-05
1.00004e-05
1.00006e-05
1.00007e-05
1.00007e-05
1.00005e-05
1e-05
9.99943e-06
9.9988e-06
9.99816e-06
9.9977e-06
9.99757e-06
9.99782e-06
9.99837e-06
9.99914e-06
9.99996e-06
1.00007e-05
1.0001e-05
1.0001e-05
1.00007e-05
1.00002e-05
9.99958e-06
9.99905e-06
9.99874e-06
9.99867e-06
9.99872e-06
9.99887e-06
9.99908e-06
9.99936e-06
9.99969e-06
1.00001e-05
1.00007e-05
1.00013e-05
1.00018e-05
1.0002e-05
1.00019e-05
1.00016e-05
1.0001e-05
1.00003e-05
9.99989e-06
9.99967e-06
9.99964e-06
9.99978e-06
1e-05
1.00004e-05
1.00007e-05
1.00009e-05
1.00009e-05
1.00008e-05
1.00005e-05
1e-05
9.99957e-06
9.99924e-06
9.99912e-06
9.99928e-06
9.99967e-06
1.00002e-05
1.00006e-05
1.00008e-05
1.00008e-05
1.00005e-05
1.00001e-05
9.99973e-06
9.99962e-06
9.99971e-06
9.99993e-06
1.00002e-05
1.00004e-05
1.00004e-05
1e-05
9.99948e-06
9.99882e-06
9.99828e-06
9.99786e-06
9.99777e-06
9.99803e-06
9.99853e-06
9.99917e-06
9.99989e-06
1.00006e-05
1.00013e-05
1.00017e-05
1.00019e-05
1.00017e-05
1.00014e-05
1.00006e-05
9.99994e-06
9.99926e-06
9.9988e-06
9.99849e-06
9.99846e-06
9.99867e-06
9.99904e-06
9.99947e-06
9.9999e-06
1.00003e-05
1.00005e-05
1.00006e-05
1.00005e-05
1.00004e-05
1.00003e-05
1.00001e-05
9.99996e-06
9.99992e-06
1.00001e-05
1.00003e-05
1.00007e-05
1.0001e-05
1.00011e-05
1.00009e-05
1.00006e-05
1.00001e-05
9.99946e-06
9.99886e-06
9.9984e-06
9.99819e-06
9.99822e-06
9.99845e-06
9.9989e-06
9.99951e-06
1.00002e-05
1.00008e-05
1.00012e-05
1.00014e-05
1.00014e-05
1.00013e-05
1.00011e-05
1.00008e-05
1.00005e-05
1.00002e-05
9.99987e-06
9.9996e-06
9.99938e-06
9.99922e-06
9.99918e-06
9.99928e-06
9.99947e-06
9.99967e-06
9.99985e-06
9.99994e-06
9.99984e-06
9.99967e-06
9.99944e-06
9.99926e-06
9.99915e-06
9.99911e-06
9.99919e-06
9.99938e-06
9.9996e-06
9.99973e-06
9.99983e-06
9.99988e-06
9.99992e-06
9.99998e-06
1.00001e-05
1.00003e-05
1.00006e-05
1.00008e-05
1.0001e-05
1.0001e-05
1.00009e-05
1.00007e-05
1.00003e-05
9.99998e-06
9.99975e-06
9.99966e-06
9.99966e-06
9.99977e-06
9.99998e-06
1.00002e-05
1.00004e-05
1.00006e-05
1.00006e-05
1.00006e-05
1.00005e-05
1.00002e-05
9.99994e-06
9.99972e-06
9.99953e-06
9.99939e-06
9.99933e-06
9.99933e-06
9.99934e-06
9.99941e-06
9.99958e-06
9.99986e-06
1.00001e-05
1.00004e-05
1.00006e-05
1.00007e-05
1.00006e-05
1.00004e-05
1.00002e-05
1.00002e-05
1.00002e-05
1.00004e-05
1.00006e-05
1.0001e-05
1.00011e-05
1.00012e-05
1.00011e-05
1.00009e-05
1.00006e-05
1.00002e-05
9.99981e-06
9.99943e-06
9.99907e-06
9.99879e-06
9.99865e-06
9.99863e-06
9.99865e-06
9.99869e-06
9.99877e-06
9.99888e-06
9.99897e-06
9.9991e-06
9.9993e-06
9.99953e-06
9.99968e-06
9.99972e-06
9.99966e-06
9.99954e-06
9.99936e-06
9.99927e-06
9.99939e-06
9.99973e-06
1.00002e-05
1.00006e-05
1.0001e-05
1.00012e-05
1.0001e-05
1.00005e-05
9.99997e-06
9.99941e-06
9.99896e-06
9.99876e-06
9.99884e-06
9.99915e-06
9.99953e-06
9.99992e-06
1.00002e-05
1.00005e-05
1.00005e-05
1.00004e-05
1.00002e-05
1e-05
9.99979e-06
9.9996e-06
9.99954e-06
9.99962e-06
9.99977e-06
9.99997e-06
1.00002e-05
1.00003e-05
1.00002e-05
9.99994e-06
9.99967e-06
9.99937e-06
9.9991e-06
9.99907e-06
9.99928e-06
9.99971e-06
1.00002e-05
1.00007e-05
1.00011e-05
1.00012e-05
1.00011e-05
1.00008e-05
1.00003e-05
9.99988e-06
9.99954e-06
9.99945e-06
9.99958e-06
9.99983e-06
1.00001e-05
1.00002e-05
1.00001e-05
9.99995e-06
9.99966e-06
9.99943e-06
9.99928e-06
9.99931e-06
9.99946e-06
9.99976e-06
1.00002e-05
1.00006e-05
1.00009e-05
1.00012e-05
1.00013e-05
1.00013e-05
1.00012e-05
1.0001e-05
1.00008e-05
1.00005e-05
1.00002e-05
9.99994e-06
9.99977e-06
9.99971e-06
9.99968e-06
9.99976e-06
9.9999e-06
1e-05
1.00001e-05
1.00001e-05
1e-05
9.9999e-06
9.99971e-06
9.99959e-06
9.99951e-06
9.99957e-06
9.99966e-06
9.99979e-06
9.99983e-06
9.99983e-06
9.99972e-06
9.99964e-06
9.99957e-06
9.99959e-06
9.99966e-06
9.99982e-06
1e-05
1.00002e-05
1.00002e-05
1.00003e-05
1.00002e-05
1.00001e-05
9.99991e-06
9.9998e-06
9.99967e-06
9.99958e-06
9.99949e-06
9.99947e-06
9.99952e-06
9.99967e-06
9.99989e-06
1.00002e-05
1.00005e-05
1.00009e-05
1.0001e-05
1.00011e-05
1.00009e-05
1.00006e-05
1.00002e-05
9.99982e-06
9.99944e-06
9.99915e-06
9.99891e-06
9.99883e-06
9.99886e-06
9.999e-06
9.99922e-06
9.99954e-06
9.99986e-06
1.00001e-05
1.00003e-05
1.00005e-05
1.00005e-05
1.00006e-05
1.00006e-05
1.00006e-05
1.00005e-05
1.00004e-05
1.00004e-05
1.00002e-05
1e-05
9.9998e-06
9.99959e-06
9.99935e-06
9.99914e-06
9.99899e-06
9.99891e-06
9.99885e-06
9.99888e-06
9.99904e-06
9.99934e-06
9.99968e-06
1.00001e-05
1.00004e-05
1.00007e-05
1.00009e-05
1.0001e-05
1.0001e-05
1.00008e-05
1.00006e-05
1.00003e-05
1e-05
9.9998e-06
9.99956e-06
9.99938e-06
9.99932e-06
9.9994e-06
9.99953e-06
9.99973e-06
9.99998e-06
1.00002e-05
1.00004e-05
1.00005e-05
1.00005e-05
1.00005e-05
1.00005e-05
1.00004e-05
1.00003e-05
1.00002e-05
1.00001e-05
9.9999e-06
9.99977e-06
9.99972e-06
9.99973e-06
9.99982e-06
1e-05
1.00002e-05
1.00004e-05
1.00005e-05
1.00005e-05
1.00005e-05
1.00003e-05
1.00002e-05
1.00001e-05
1.00001e-05
1.00001e-05
1e-05
1e-05
9.99996e-06
9.99984e-06
9.99971e-06
9.99962e-06
9.99959e-06
9.99956e-06
9.9996e-06
9.99977e-06
1e-05
1.00003e-05
1.00004e-05
1.00005e-05
1.00004e-05
1.00002e-05
9.99999e-06
9.99987e-06
9.99989e-06
1e-05
1.00002e-05
1.00004e-05
1.00005e-05
1.00005e-05
1.00004e-05
1.00002e-05
1.00001e-05
9.99996e-06
9.99982e-06
9.99974e-06
9.99972e-06
9.99973e-06
9.99974e-06
9.99979e-06
9.99991e-06
1e-05
1.00001e-05
1.00002e-05
1.00003e-05
1.00003e-05
1.00003e-05
1.00002e-05
1.00002e-05
1e-05
9.99995e-06
9.99991e-06
9.99994e-06
9.99995e-06
9.99996e-06
9.99999e-06
1e-05
1e-05
9.99999e-06
9.99997e-06
1e-05
1.00001e-05
1.00002e-05
1.00003e-05
1.00005e-05
1.00005e-05
1.00005e-05
1.00004e-05
1.00003e-05
1.00001e-05
9.99998e-06
9.99987e-06
9.99985e-06
9.99981e-06
9.99981e-06
9.99986e-06
9.99999e-06
1.00001e-05
1.00002e-05
1.00002e-05
1.00003e-05
1.00003e-05
1.00003e-05
1.00002e-05
1.00002e-05
1.00001e-05
1.00001e-05
1.00001e-05
1.00001e-05
1.00001e-05
1.00001e-05
1e-05
1.00001e-05
1.00001e-05
1.00002e-05
1.00002e-05
1.00003e-05
1.00004e-05
1.00005e-05
1.00005e-05
1.00004e-05
1.00003e-05
1.00002e-05
1.00001e-05
9.99995e-06
9.99982e-06
9.99977e-06
9.99975e-06
9.99983e-06
9.99989e-06
9.99995e-06
9.99998e-06
1e-05
9.99999e-06
1e-05
1e-05
1e-05
9.99998e-06
9.99996e-06
9.99997e-06
1e-05
9.99996e-06
9.99994e-06
9.99996e-06
9.99999e-06
9.99999e-06
1e-05
1e-05
1e-05
1e-05
1.00001e-05
1.00001e-05
1.00001e-05
1.00002e-05
1.00002e-05
1.00003e-05
1.00003e-05
1.00002e-05
1.00001e-05
9.99985e-06
9.99965e-06
9.99949e-06
9.99936e-06
9.99932e-06
9.99943e-06
9.99965e-06
9.99986e-06
1e-05
1.00002e-05
1.00003e-05
1.00003e-05
1.00003e-05
1.00002e-05
1.00002e-05
1.00001e-05
9.99998e-06
9.99989e-06
9.99982e-06
9.99973e-06
9.99965e-06
9.99964e-06
9.99968e-06
9.99972e-06
9.99976e-06
9.99982e-06
9.99989e-06
9.99991e-06
9.99991e-06
9.99993e-06
9.99998e-06
1e-05
1e-05
1e-05
1e-05
9.99995e-06
9.99988e-06
9.99984e-06
9.99983e-06
9.99982e-06
9.99983e-06
9.99989e-06
9.99999e-06
1.00001e-05
1.00001e-05
1.00002e-05
1.00002e-05
1.00002e-05
1.00001e-05
1e-05
1e-05
9.99994e-06
9.99989e-06
9.9999e-06
9.99993e-06
9.99991e-06
9.99989e-06
9.99993e-06
9.99999e-06
1e-05
9.99997e-06
9.99994e-06
9.99994e-06
9.99991e-06
9.99987e-06
9.99986e-06
9.99986e-06
9.99982e-06
9.99976e-06
9.99974e-06
9.99977e-06
9.9998e-06
9.99985e-06
9.99995e-06
1.00001e-05
1.00001e-05
1.00001e-05
1.00001e-05
1.00001e-05
1.00001e-05
9.99998e-06
9.99992e-06
9.9999e-06
9.99988e-06
9.99987e-06
9.9999e-06
9.99997e-06
1e-05
1e-05
1.00001e-05
1.00001e-05
1.00001e-05
1.00001e-05
1.00001e-05
1.00001e-05
1.00001e-05
1.00001e-05
1e-05
1e-05
9.99996e-06
9.99989e-06
9.99979e-06
9.99979e-06
9.99983e-06
9.99992e-06
1e-05
1.00001e-05
1.00002e-05
1.00001e-05
1.00001e-05
1e-05
9.99995e-06
9.99989e-06
9.99983e-06
9.99987e-06
9.99993e-06
1e-05
1.00001e-05
1.00001e-05
1.00001e-05
1.00001e-05
1e-05
1e-05
9.99997e-06
9.99995e-06
9.99991e-06
9.99993e-06
9.99993e-06
9.99995e-06
9.99996e-06
9.99999e-06
9.99997e-06
9.99994e-06
9.99989e-06
9.99991e-06
9.99992e-06
9.99997e-06
1e-05
1.00001e-05
1.00001e-05
1.00001e-05
1.00001e-05
1e-05
9.99998e-06
1e-05
1e-05
1e-05
9.99996e-06
9.99997e-06
9.99998e-06
1e-05
1.00001e-05
1e-05
9.99998e-06
9.99996e-06
9.99993e-06
9.99996e-06
1e-05
1.00001e-05
1.00001e-05
1.00001e-05
1e-05
9.99995e-06
9.99988e-06
9.99985e-06
9.99987e-06
9.99992e-06
9.99996e-06
1e-05
1e-05
1e-05
1e-05
9.99999e-06
9.99999e-06
9.99999e-06
9.99995e-06
9.99988e-06
9.9998e-06
9.99975e-06
9.99968e-06
9.99971e-06
9.99981e-06
9.99992e-06
1e-05
1.00001e-05
1.00001e-05
1.00001e-05
1.00001e-05
9.99994e-06
9.99984e-06
9.9998e-06
9.99985e-06
9.99993e-06
9.99996e-06
1e-05
1.00001e-05
1.00001e-05
1e-05
1e-05
1e-05
9.99994e-06
9.99988e-06
9.99989e-06
9.99994e-06
9.99997e-06
9.99997e-06
9.99999e-06
1e-05
1e-05
9.99996e-06
9.99992e-06
9.9999e-06
9.99985e-06
9.99981e-06
9.99981e-06
9.99988e-06
9.99993e-06
9.99997e-06
1e-05
1e-05
9.99999e-06
9.99993e-06
9.99988e-06
9.99984e-06
9.99977e-06
9.99971e-06
9.99978e-06
1.00001e-05
1.00005e-05
1.00011e-05
1.00018e-05
1.00024e-05
1.00025e-05
1.00018e-05
1.00004e-05
9.99831e-06
9.99578e-06
9.99321e-06
9.99091e-06
9.98892e-06
9.98732e-06
9.98591e-06
9.98436e-06
9.98231e-06
9.97937e-06
9.97537e-06
9.97101e-06
9.96796e-06
9.96815e-06
9.9744e-06
9.98967e-06
1.00181e-05
1.00565e-05
1.01012e-05
1.01453e-05
1.01809e-05
1.01945e-05
1.01757e-05
1.01176e-05
1.0006e-05
9.85164e-06
9.66447e-06
9.45993e-06
9.24276e-06
9.05697e-06
8.91817e-06
8.83086e-06
8.80058e-06
8.82072e-06
8.87984e-06
8.98073e-06
9.1742e-06
9.45791e-06
9.87181e-06
1.04777e-05
1.14126e-05
1.25886e-05
1.39845e-05
1.55746e-05
1.74489e-05
1.93896e-05
2.13393e-05
2.32605e-05
2.52689e-05
2.71725e-05
2.89377e-05
3.05607e-05
3.21547e-05
3.35873e-05
3.48134e-05
3.60987e-05
3.7179e-05
3.81924e-05
3.90267e-05
3.98017e-05
4.03285e-05
4.08684e-05
4.12823e-05
4.16542e-05
4.19001e-05
4.21397e-05
4.22713e-05
4.23285e-05
4.22675e-05
4.21046e-05
4.18997e-05
4.15786e-05
4.11875e-05
4.07001e-05
4.01776e-05
3.95646e-05
3.89695e-05
3.83597e-05
3.77815e-05
3.70855e-05
3.63027e-05
3.53433e-05
3.43064e-05
3.30857e-05
3.1852e-05
3.05033e-05
2.91946e-05
2.77925e-05
2.64334e-05
2.49418e-05
2.34193e-05
2.16776e-05
1.98734e-05
1.78371e-05
1.57932e-05
1.37058e-05
1.20899e-05
1.16451e-05
1.36686e-05
1.87222e-05
2.51374e-05
3.1435e-05
3.5383e-05
3.60158e-05
3.21322e-05
2.53335e-05
2.43233e-05
3.91743e-05
5.16676e-05
5.98883e-05
6.65046e-05
7.10115e-05
7.31539e-05
7.37962e-05
7.38516e-05
7.35293e-05
7.28262e-05
7.17539e-05
7.03825e-05
6.92111e-05
6.81897e-05
6.7334e-05
6.66177e-05
6.62791e-05
6.62452e-05
6.64483e-05
6.6786e-05
6.72777e-05
6.77669e-05
6.82657e-05
6.87312e-05
6.90595e-05
6.93236e-05
6.95036e-05
6.95362e-05
6.9567e-05
6.94583e-05
6.93786e-05
6.92423e-05
6.91363e-05
6.90175e-05
6.88213e-05
6.87393e-05
6.86017e-05
6.85303e-05
6.84762e-05
6.84791e-05
6.84542e-05
6.84418e-05
6.84405e-05
6.84664e-05
6.85042e-05
6.86001e-05
6.86718e-05
6.8717e-05
6.87693e-05
6.88079e-05
6.87968e-05
6.87754e-05
6.87611e-05
6.87316e-05
6.86753e-05
6.86319e-05
6.86204e-05
6.86162e-05
6.85937e-05
6.85873e-05
6.86122e-05
6.864e-05
6.86383e-05
6.86455e-05
6.86758e-05
6.87005e-05
6.86883e-05
6.86808e-05
6.86949e-05
6.87032e-05
6.86761e-05
6.8658e-05
6.86671e-05
6.8676e-05
6.86558e-05
6.86486e-05
6.86689e-05
6.86855e-05
6.86666e-05
6.86509e-05
6.86539e-05
6.8648e-05
6.86041e-05
6.85657e-05
6.85513e-05
6.85408e-05
6.8508e-05
6.85003e-05
6.85388e-05
6.85926e-05
6.8616e-05
6.86561e-05
6.87231e-05
6.8764e-05
6.87196e-05
6.86542e-05
6.85894e-05
6.85096e-05
6.8404e-05
6.83289e-05
6.83147e-05
6.83506e-05
6.84104e-05
6.85282e-05
6.8706e-05
6.88821e-05
6.89928e-05
6.90555e-05
6.90617e-05
6.8964e-05
6.87433e-05
6.84733e-05
6.82195e-05
6.8034e-05
6.79379e-05
6.80039e-05
6.82663e-05
6.86542e-05
6.9033e-05
6.93462e-05
6.9528e-05
6.94494e-05
6.9021e-05
6.83033e-05
6.74797e-05
6.68435e-05
6.6567e-05
6.68264e-05
6.78838e-05
6.97825e-05
7.20067e-05
7.38103e-05
7.4749e-05
7.44324e-05
7.14021e-05
6.29626e-05
4.75752e-05
2.97865e-05
2.37231e-05
2.43985e-05
2.68503e-05
2.79003e-05
2.84493e-05
2.9035e-05
2.84761e-05
2.64834e-05
2.4143e-05
2.26584e-05
2.18947e-05
2.18035e-05
2.21236e-05
2.31398e-05
2.44375e-05
2.57354e-05
2.68225e-05
2.79751e-05
2.91275e-05
3.02352e-05
3.10799e-05
3.17713e-05
3.23342e-05
3.28184e-05
3.32313e-05
3.35714e-05
3.37573e-05
3.37265e-05
3.34802e-05
3.30096e-05
3.23991e-05
3.15776e-05
3.06726e-05
2.96964e-05
2.88221e-05
2.79522e-05
2.72291e-05
2.6621e-05
2.62403e-05
2.59833e-05
2.58905e-05
2.59601e-05
2.61768e-05
2.64435e-05
2.672e-05
2.70161e-05
2.73172e-05
2.75296e-05
2.76559e-05
2.77334e-05
2.78238e-05
2.78529e-05
2.7798e-05
2.79001e-05
2.77179e-05
2.75537e-05
2.72177e-05
2.69635e-05
2.64451e-05
2.60211e-05
2.55192e-05
2.5007e-05
2.44524e-05
2.38703e-05
2.3239e-05
2.24441e-05
2.17849e-05
2.10168e-05
2.01766e-05
1.93299e-05
1.83796e-05
1.73751e-05
1.63591e-05
1.52401e-05
1.4167e-05
1.3151e-05
1.22028e-05
1.13495e-05
1.05921e-05
9.94024e-06
9.43545e-06
9.03342e-06
8.76769e-06
8.65992e-06
8.6612e-06
8.74388e-06
8.89662e-06
9.08837e-06
9.28792e-06
9.49116e-06
9.6838e-06
9.84067e-06
9.97663e-06
1.00843e-05
1.0156e-05
1.01984e-05
1.02122e-05
1.0207e-05
1.01856e-05
1.01555e-05
1.01194e-05
1.00825e-05
1.00501e-05
1.00202e-05
9.99899e-06
9.98402e-06
9.97553e-06
9.97248e-06
9.97397e-06
9.97834e-06
9.98416e-06
9.99044e-06
9.99583e-06
9.99985e-06
1.00023e-05
1.00034e-05
1.00033e-05
1.00026e-05
1.00015e-05
1.00004e-05
9.99966e-06
9.99932e-06
9.9993e-06
9.99952e-06
9.99989e-06
1.00003e-05
1.00006e-05
1.00007e-05
1.00006e-05
1.00004e-05
1.00001e-05
9.99981e-06
9.9997e-06
9.99976e-06
9.99987e-06
9.99997e-06
1e-05
1.00001e-05
1.00001e-05
1.00001e-05
1.00003e-05
1.00005e-05
1.00008e-05
1.0001e-05
1.00011e-05
1.00011e-05
1.00009e-05
1.00006e-05
1.00003e-05
1e-05
9.99973e-06
9.99953e-06
9.99948e-06
9.9996e-06
9.99982e-06
1.00001e-05
1.00003e-05
1.00004e-05
1.00004e-05
1.00001e-05
9.99975e-06
9.99935e-06
9.99899e-06
9.99879e-06
9.99885e-06
9.99919e-06
9.99962e-06
1.00001e-05
1.00004e-05
1.00007e-05
1.00007e-05
1.00005e-05
1.00003e-05
1.00001e-05
9.99993e-06
9.9998e-06
9.99975e-06
9.99979e-06
9.99983e-06
9.99986e-06
9.99992e-06
9.99999e-06
1e-05
9.99996e-06
9.99994e-06
9.99997e-06
1e-05
1e-05
1.00001e-05
1.00001e-05
1.00001e-05
1e-05
9.99995e-06
9.99988e-06
9.99978e-06
9.99968e-06
9.99961e-06
9.99961e-06
9.99967e-06
9.99984e-06
1.00002e-05
1.00006e-05
1.00012e-05
1.00018e-05
1.00022e-05
1.00022e-05
1.00017e-05
1.0001e-05
1.00001e-05
9.9994e-06
9.99884e-06
9.99854e-06
9.9985e-06
9.99874e-06
9.99919e-06
9.99974e-06
1.00003e-05
1.00008e-05
1.00011e-05
1.00012e-05
1.0001e-05
1.00007e-05
1.00003e-05
9.99999e-06
9.99993e-06
1.00001e-05
1.00004e-05
1.00008e-05
1.00011e-05
1.00012e-05
1.0001e-05
1.00006e-05
9.99994e-06
9.99929e-06
9.9987e-06
9.99839e-06
9.99839e-06
9.99878e-06
9.9994e-06
1.00001e-05
1.00007e-05
1.00011e-05
1.00013e-05
1.00014e-05
1.00012e-05
1.00009e-05
1.00005e-05
1e-05
9.99957e-06
9.99922e-06
9.99887e-06
9.99867e-06
9.99858e-06
9.99861e-06
9.99884e-06
9.99924e-06
9.99971e-06
1.00001e-05
1.00004e-05
1.00005e-05
1.00004e-05
1.00003e-05
1.00002e-05
1.00003e-05
1.00004e-05
1.00005e-05
1.00006e-05
1.00005e-05
1.00001e-05
9.99989e-06
1.00001e-05
1.00002e-05
1.00002e-05
1.00002e-05
1.00001e-05
1.00001e-05
1e-05
9.99993e-06
9.99987e-06
9.99994e-06
9.99997e-06
9.99998e-06
9.99993e-06
9.99986e-06
9.99983e-06
9.99977e-06
9.99975e-06
9.99977e-06
9.99987e-06
9.99997e-06
1.00001e-05
1.00002e-05
1.00002e-05
1.00002e-05
1.00001e-05
9.99997e-06
9.99988e-06
9.99983e-06
9.99986e-06
9.99994e-06
1.00001e-05
1.00001e-05
1.00001e-05
1e-05
9.99993e-06
9.99987e-06
9.9999e-06
9.99998e-06
1.00001e-05
1.00001e-05
1e-05
9.99984e-06
9.99975e-06
9.99971e-06
9.99973e-06
9.99976e-06
9.99983e-06
9.99986e-06
9.99986e-06
9.99984e-06
9.99983e-06
9.99981e-06
9.99982e-06
9.99984e-06
9.9999e-06
9.99992e-06
9.9999e-06
9.99986e-06
9.99988e-06
9.99991e-06
9.99995e-06
9.99997e-06
9.99994e-06
9.99982e-06
9.99971e-06
9.99964e-06
9.99967e-06
9.99971e-06
9.99979e-06
9.99986e-06
9.99996e-06
1e-05
9.99999e-06
9.99991e-06
9.99984e-06
9.99983e-06
9.99993e-06
1e-05
1.00001e-05
9.99999e-06
9.99981e-06
9.99972e-06
9.99971e-06
9.99978e-06
9.99985e-06
9.99996e-06
1.00001e-05
1.00001e-05
1.00001e-05
1.00001e-05
1.00001e-05
1.00001e-05
9.99997e-06
9.99989e-06
9.99986e-06
9.99982e-06
9.99978e-06
9.99979e-06
9.9998e-06
9.99985e-06
9.99991e-06
1e-05
1.00001e-05
1.00002e-05
1.00002e-05
1.00002e-05
1.00001e-05
1.00001e-05
1e-05
9.99997e-06
9.99998e-06
9.99998e-06
9.99994e-06
9.99994e-06
1e-05
1.00001e-05
1.00001e-05
1e-05
9.99993e-06
9.99982e-06
9.99975e-06
9.99981e-06
9.99993e-06
1.00001e-05
1.00002e-05
1.00002e-05
1.00002e-05
1.00001e-05
9.99996e-06
9.99987e-06
9.99989e-06
9.99997e-06
1e-05
1.00001e-05
1e-05
9.99999e-06
9.99993e-06
9.99993e-06
9.99992e-06
9.99991e-06
9.99989e-06
9.99991e-06
9.99994e-06
9.99998e-06
9.99999e-06
1.00001e-05
1.00003e-05
1.00006e-05
1.00007e-05
1.00001e-05
9.99805e-06
9.99348e-06
9.98717e-06
9.98112e-06
9.98145e-06
9.99775e-06
1.00338e-05
1.00978e-05
1.01654e-05
1.02133e-05
1.01992e-05
1.00903e-05
9.8851e-06
9.55161e-06
9.2023e-06
8.82558e-06
8.62773e-06
8.71894e-06
9.15377e-06
1.01294e-05
1.14619e-05
1.34962e-05
1.56504e-05
1.84895e-05
2.10049e-05
2.35686e-05
2.62507e-05
2.90353e-05
3.16894e-05
3.43126e-05
3.68925e-05
3.94704e-05
4.19863e-05
4.42282e-05
4.6503e-05
4.87841e-05
5.09831e-05
5.29953e-05
5.51066e-05
5.76766e-05
5.97905e-05
6.17555e-05
6.34405e-05
6.52964e-05
6.69515e-05
6.82951e-05
6.95694e-05
7.07296e-05
7.17763e-05
7.26298e-05
7.35172e-05
7.44771e-05
7.53117e-05
7.62701e-05
7.70037e-05
7.78348e-05
7.85474e-05
7.90621e-05
7.94837e-05
7.98355e-05
7.99471e-05
8.00074e-05
7.97727e-05
7.95538e-05
7.92676e-05
7.9e-05
7.88081e-05
7.8684e-05
7.84361e-05
7.8116e-05
7.74839e-05
7.6706e-05
7.5806e-05
7.49572e-05
7.41004e-05
7.31765e-05
7.20178e-05
7.06642e-05
6.91454e-05
6.77566e-05
6.65651e-05
6.55714e-05
6.45551e-05
6.36049e-05
6.27366e-05
6.18471e-05
6.08371e-05
5.98949e-05
5.89746e-05
5.81228e-05
5.76446e-05
5.75421e-05
5.76569e-05
5.80978e-05
5.89641e-05
5.96016e-05
6.00752e-05
6.04441e-05
6.09848e-05
6.12324e-05
6.17515e-05
6.23416e-05
6.32287e-05
6.40338e-05
6.5324e-05
6.67047e-05
6.85433e-05
7.05372e-05
7.32268e-05
7.62445e-05
8.00716e-05
8.43339e-05
8.93764e-05
9.44192e-05
9.9878e-05
0.000104859
0.000109319
0.0001125
0.000113763
0.000112698
0.000110254
0.000105972
0.000101865
9.62149e-05
9.06892e-05
8.49378e-05
8.13684e-05
8.86998e-05
0.000117162
0.000180478
0.000247505
0.00028601
0.000325757
0.000334267
0.000331953
0.000375137
0.000356747
0.000400996
0.000357627
0.00036301
0.000359004
0.00035028
0.000358593
0.000350175
0.00035378
0.000325103
0.00034749
0.000346615
0.000350539
0.000354028
0.000345549
0.000326792
0.000338708
0.000375149
0.000355908
0.000323434
0.000376356
0.000356434
0.000355543
0.000306346
0.0003259
0.000324584
0.000359725
0.000341162
0.000364559
0.000365541
0.000364204
0.000342115
0.000359721
0.000337996
0.000340709
0.000315049
0.000348561
0.000343247
0.000335947
0.000333779
0.000329233
0.000326314
0.00034232
0.000377263
0.000348965
0.000341047
0.000355221
0.000333415
0.000341572
0.000328968
0.000359618
0.000345817
0.000340099
0.000337783
0.000354461
0.000352978
0.000366692
0.000368851
0.00034775
0.000317637
0.000341905
0.000336237
0.000334088
0.000311859
0.00037173
0.000400084
0.0003524
0.000350528
0.000353795
0.000341089
0.000350794
0.000351024
0.000343776
0.000387951
0.000337304
0.000332219
0.000342592
0.000383188
0.000333334
0.000325949
0.000331027
0.000338176
0.000352857
0.000335737
0.000336316
0.000336731
0.000335679
0.000331883
0.000337496
0.000363197
0.000376615
0.000338499
0.000343506
0.000361786
0.000340807
0.00033374
0.000324453
0.000318468
0.000327958
0.000344837
0.000351993
0.000346367
0.00035181
0.000343467
0.000343317
0.000352834
0.00033313
0.000338029
0.000341005
0.00033322
0.000321907
0.000310042
0.00032109
0.000357493
0.000360352
0.000376387
0.000374811
0.000330116
0.000310217
0.000310155
0.000333287
0.000358117
0.000356576
0.00035395
0.000309692
0.00032358
0.000312025
0.000312029
0.000282213
0.000233447
0.000142375
6.55501e-05
4.91306e-05
5.04046e-05
6.00813e-05
7.38159e-05
8.51183e-05
9.6128e-05
0.000103324
0.000109207
0.000111219