/*--------------------------------*- C++ -*----------------------------------*\
| =========                 |                                                 |
| \\      /  F ield         | foam-extend: Open Source CFD                    |
|  \\    /   O peration     | Version:     4.0                                |
|   \\  /    A nd           | Web:         http://www.foam-extend.org         |
|    \\/     M anipulation  |                                                 |
\*---------------------------------------------------------------------------*/
FoamFile
{
    version     2.0;
    format      ascii;
    class       volScalarField;
    location    "0.004";
    object      h;
}
// * * * * * * * * * * * * * * * * * * * * * * * * * * * * * * * * * * * * * //

dimensions      [0 1 0 0 0 0 0];

internalField   nonuniform List<scalar> 
176451
(
1.00025e-05
1.00009e-05
9.9977e-06
1.00005e-05
9.99933e-06
9.99849e-06
9.99976e-06
9.99959e-06
1.00015e-05
9.99832e-06
9.9997e-06
1.00045e-05
1.00018e-05
1.00017e-05
1.00023e-05
9.99944e-06
1.00023e-05
9.99658e-06
1.00018e-05
1.00004e-05
1.00003e-05
1.00005e-05
9.99996e-06
1.00006e-05
1.00017e-05
1e-05
1.00013e-05
1.00003e-05
9.9987e-06
9.99999e-06
9.99922e-06
1.00026e-05
1.00003e-05
9.99841e-06
9.99955e-06
1.00008e-05
1.00003e-05
1.00026e-05
9.99885e-06
9.9992e-06
1.00018e-05
1.00022e-05
9.99951e-06
9.99812e-06
1.00007e-05
9.99954e-06
1.00005e-05
9.99919e-06
1.00015e-05
1.0001e-05
1.00057e-05
9.99921e-06
9.99831e-06
1.00015e-05
9.99852e-06
9.99989e-06
1.00005e-05
9.99937e-06
9.99667e-06
9.99816e-06
1.00009e-05
9.99868e-06
9.99673e-06
9.99797e-06
9.9982e-06
1.0004e-05
9.99896e-06
1.00006e-05
1.00034e-05
9.99978e-06
9.99963e-06
9.99984e-06
9.99988e-06
1.00022e-05
1.00009e-05
1.00014e-05
9.99907e-06
1.00036e-05
1e-05
9.99676e-06
9.99968e-06
1.00025e-05
9.99927e-06
9.99848e-06
9.9987e-06
1.00001e-05
9.99986e-06
9.99846e-06
1.00002e-05
1.00025e-05
1.00014e-05
9.99837e-06
1.00016e-05
1.00012e-05
9.99851e-06
9.99784e-06
9.99733e-06
1.00007e-05
1.00052e-05
9.99904e-06
9.99977e-06
9.99899e-06
1.00019e-05
9.99912e-06
1.00002e-05
9.99902e-06
1.00012e-05
1.00005e-05
9.99938e-06
1.00029e-05
1.0005e-05
9.99989e-06
1.00022e-05
9.99962e-06
1.00003e-05
1.00051e-05
9.99961e-06
9.99803e-06
1.00032e-05
1.0002e-05
9.99847e-06
1.00004e-05
9.99737e-06
9.9981e-06
1.00024e-05
1.00004e-05
9.99726e-06
1.00011e-05
9.99895e-06
1.00008e-05
1.0001e-05
1.00024e-05
9.99895e-06
1.00032e-05
1.00013e-05
1.00019e-05
1.00033e-05
9.99769e-06
1.00032e-05
1e-05
9.99955e-06
9.9988e-06
1.00018e-05
1.00018e-05
9.99961e-06
1.00009e-05
9.99921e-06
9.99808e-06
1.00025e-05
9.99783e-06
1.00058e-05
1.00002e-05
9.99739e-06
9.9988e-06
9.99531e-06
1.00007e-05
9.9995e-06
9.99983e-06
1.00033e-05
9.99976e-06
1.00015e-05
1.00006e-05
9.99905e-06
1.0001e-05
9.99712e-06
1.0002e-05
1.00011e-05
1.00011e-05
9.99707e-06
1.00029e-05
9.99737e-06
9.99907e-06
1.00032e-05
1.00002e-05
1.00007e-05
9.99888e-06
1.00024e-05
9.99874e-06
1.0002e-05
9.99752e-06
1.00016e-05
1.00004e-05
9.99822e-06
9.99872e-06
9.99763e-06
1.00001e-05
1.00021e-05
1.00003e-05
1.00026e-05
9.99992e-06
9.99922e-06
9.9991e-06
9.99899e-06
9.99896e-06
9.99905e-06
9.99928e-06
9.99961e-06
9.99987e-06
9.99999e-06
9.99997e-06
9.99984e-06
9.99964e-06
9.99952e-06
9.99957e-06
9.99981e-06
1.00001e-05
1.00005e-05
1.00007e-05
1.00009e-05
1.00008e-05
1.00006e-05
1.00003e-05
1.00001e-05
1e-05
1e-05
1.00001e-05
1.00003e-05
1.00004e-05
1.00003e-05
1.00003e-05
1.00002e-05
1.00001e-05
9.99998e-06
9.99989e-06
9.99988e-06
9.99988e-06
9.99996e-06
1.00001e-05
1.00003e-05
1.00004e-05
1.00004e-05
1.00004e-05
1.00004e-05
1.00003e-05
1.00003e-05
1.00003e-05
1.00003e-05
1.00004e-05
1.00005e-05
1.00005e-05
1.00006e-05
1.00005e-05
1.00004e-05
1.00003e-05
1.00002e-05
1e-05
9.99996e-06
9.99986e-06
9.99972e-06
9.9996e-06
9.99957e-06
9.99954e-06
9.99961e-06
9.99974e-06
1e-05
1.00003e-05
1.00005e-05
1.00007e-05
1.00008e-05
1.00008e-05
1.00006e-05
1.00004e-05
1.00002e-05
1.00001e-05
1.00001e-05
1.00001e-05
1.00003e-05
1.00004e-05
1.00004e-05
1.00002e-05
1e-05
9.99988e-06
9.99988e-06
1.00001e-05
1.00005e-05
1.00008e-05
1.00009e-05
1.00007e-05
1.00004e-05
9.99984e-06
9.99937e-06
9.99908e-06
9.9991e-06
9.99931e-06
9.99959e-06
9.99989e-06
1.00002e-05
1.00003e-05
1.00004e-05
1.00003e-05
1.00002e-05
1.00001e-05
1.00001e-05
9.99999e-06
1e-05
9.99996e-06
9.99986e-06
9.99975e-06
9.99976e-06
9.99981e-06
9.99989e-06
9.99999e-06
1.00001e-05
1.00002e-05
1.00003e-05
1.00003e-05
1.00004e-05
1.00004e-05
1.00004e-05
1.00004e-05
1.00004e-05
1.00004e-05
1.00004e-05
1.00003e-05
1.00003e-05
1.00001e-05
9.99998e-06
9.99985e-06
9.99987e-06
9.99994e-06
1e-05
1.00001e-05
1.00003e-05
1.00005e-05
1.00006e-05
1.00007e-05
1.00008e-05
1.00007e-05
1.00005e-05
1.00003e-05
1e-05
9.99977e-06
9.99958e-06
9.99942e-06
9.99933e-06
9.99921e-06
9.99916e-06
9.99918e-06
9.99921e-06
9.99932e-06
9.99951e-06
9.99975e-06
9.99996e-06
1.00001e-05
1.00003e-05
1.00003e-05
1.00002e-05
1e-05
9.99985e-06
9.9998e-06
9.99984e-06
9.99999e-06
1.00002e-05
1.00003e-05
1.00003e-05
1.00003e-05
1.00002e-05
1.00002e-05
1.00002e-05
1.00003e-05
1.00002e-05
9.99991e-06
9.99949e-06
9.99909e-06
9.99886e-06
9.99891e-06
9.99915e-06
9.99953e-06
9.99994e-06
1.00003e-05
1.00005e-05
1.00005e-05
1.00004e-05
1.00003e-05
1.00001e-05
9.99996e-06
9.99995e-06
1.00001e-05
1.00002e-05
1.00003e-05
1.00004e-05
1.00004e-05
1.00004e-05
1.00003e-05
1.00003e-05
1.00002e-05
1.00002e-05
1.00001e-05
1.00001e-05
1.00001e-05
1.00001e-05
1.00001e-05
1e-05
9.99992e-06
9.99972e-06
9.99951e-06
9.99938e-06
9.99937e-06
9.99942e-06
9.99953e-06
9.99967e-06
9.99981e-06
9.99989e-06
9.99998e-06
1.00001e-05
1.00004e-05
1.00006e-05
1.00007e-05
1.00007e-05
1.00005e-05
1.00002e-05
9.99987e-06
9.99971e-06
9.99972e-06
9.99981e-06
9.99998e-06
1.00002e-05
1.00003e-05
1.00004e-05
1.00004e-05
1.00004e-05
1.00004e-05
1.00003e-05
1.00003e-05
1.00003e-05
1.00003e-05
1.00004e-05
1.00004e-05
1.00006e-05
1.00007e-05
1.00007e-05
1.00006e-05
1.00004e-05
1.00001e-05
9.99966e-06
9.99935e-06
9.99922e-06
9.99928e-06
9.99941e-06
9.99965e-06
9.99993e-06
1.00002e-05
1.00004e-05
1.00005e-05
1.00006e-05
1.00005e-05
1.00002e-05
9.99997e-06
9.99977e-06
9.99963e-06
9.99952e-06
9.99954e-06
9.99962e-06
9.99974e-06
9.99982e-06
9.99995e-06
1.00002e-05
1.00004e-05
1.00006e-05
1.00008e-05
1.00009e-05
1.0001e-05
1.0001e-05
1.0001e-05
1.0001e-05
1.00011e-05
1.0001e-05
1.00009e-05
1.00006e-05
1.00002e-05
9.99978e-06
9.99945e-06
9.99929e-06
9.99934e-06
9.99945e-06
9.99967e-06
9.99986e-06
1e-05
1e-05
1e-05
9.99997e-06
9.99996e-06
1.00001e-05
1.00002e-05
1.00004e-05
1.00004e-05
1.00002e-05
9.99992e-06
9.99965e-06
9.99946e-06
9.99943e-06
9.9996e-06
9.99987e-06
1.00001e-05
1.00001e-05
1e-05
9.99988e-06
9.99969e-06
9.99952e-06
9.99949e-06
9.9996e-06
9.99978e-06
1e-05
1.00003e-05
1.00005e-05
1.00006e-05
1.00005e-05
1.00004e-05
1.00003e-05
1.00001e-05
9.99992e-06
9.99991e-06
1e-05
1.00001e-05
1.00001e-05
1.00001e-05
1.00001e-05
1e-05
9.99983e-06
9.99972e-06
9.9997e-06
9.99977e-06
9.99991e-06
1.00001e-05
1.00004e-05
1.00006e-05
1.00007e-05
1.00006e-05
1.00003e-05
9.99983e-06
9.99937e-06
9.99908e-06
9.99907e-06
9.99936e-06
9.99983e-06
1.00002e-05
1.00004e-05
1.00004e-05
1.00002e-05
9.9999e-06
9.99968e-06
9.99963e-06
9.99972e-06
9.99982e-06
9.99991e-06
1e-05
1.00001e-05
1.00002e-05
1.00004e-05
1.00005e-05
1.00006e-05
1.00004e-05
1.00001e-05
9.99975e-06
9.9994e-06
9.99915e-06
9.99906e-06
9.99914e-06
9.9993e-06
9.9994e-06
9.99944e-06
9.9995e-06
9.99965e-06
9.9999e-06
1.00003e-05
1.00007e-05
1.0001e-05
1.0001e-05
1.00008e-05
1.00004e-05
9.99996e-06
9.99965e-06
9.99956e-06
9.99973e-06
1.00001e-05
1.00004e-05
1.00005e-05
1.00006e-05
1.00005e-05
1.00003e-05
1.00001e-05
9.99974e-06
9.99942e-06
9.99911e-06
9.99889e-06
9.99887e-06
9.99906e-06
9.99934e-06
9.99968e-06
1e-05
1.00003e-05
1.00004e-05
1.00005e-05
1.00006e-05
1.00007e-05
1.00007e-05
1.00007e-05
1.00007e-05
1.00006e-05
1.00004e-05
1.00002e-05
1.00001e-05
1e-05
1.00001e-05
1.00001e-05
1.00002e-05
1.00004e-05
1.00004e-05
1.00003e-05
1.00002e-05
1e-05
9.99982e-06
9.99964e-06
9.99958e-06
9.99966e-06
9.9998e-06
9.99996e-06
1.00001e-05
1.00002e-05
1.00001e-05
9.99997e-06
9.99986e-06
9.99984e-06
9.99987e-06
9.99999e-06
1.00002e-05
1.00004e-05
1.00006e-05
1.00007e-05
1.00008e-05
1.00008e-05
1.00007e-05
1.00004e-05
1.00001e-05
9.99987e-06
9.99958e-06
9.99946e-06
9.99947e-06
9.99967e-06
9.99989e-06
1.00001e-05
1.00003e-05
1.00003e-05
1.00001e-05
9.99997e-06
9.99986e-06
9.99992e-06
1e-05
1.00002e-05
1.00003e-05
1.00002e-05
1e-05
9.99981e-06
9.99963e-06
9.99965e-06
9.99979e-06
1e-05
1.00003e-05
1.00006e-05
1.00006e-05
1.00005e-05
1.00003e-05
1.00002e-05
1.00001e-05
9.99997e-06
9.99997e-06
1e-05
9.99995e-06
9.9999e-06
9.99985e-06
9.99986e-06
9.99982e-06
9.99981e-06
9.99974e-06
9.9997e-06
9.99963e-06
9.99967e-06
9.99982e-06
1e-05
1.00002e-05
1.00004e-05
1.00005e-05
1.00004e-05
1.00002e-05
1.00001e-05
1e-05
1e-05
1.00001e-05
1.00002e-05
1.00003e-05
1.00002e-05
1e-05
9.99989e-06
9.99983e-06
9.99986e-06
9.99997e-06
1.00001e-05
1.00002e-05
1.00002e-05
1.00002e-05
1.00002e-05
1.00003e-05
1.00004e-05
1.00004e-05
1.00003e-05
1.00002e-05
9.99992e-06
9.99966e-06
9.99952e-06
9.99949e-06
9.99967e-06
9.99997e-06
1.00003e-05
1.00006e-05
1.00007e-05
1.00007e-05
1.00006e-05
1.00004e-05
1.00003e-05
1.00001e-05
1.00001e-05
1.00001e-05
9.9999e-06
9.99965e-06
9.99943e-06
9.99925e-06
9.99926e-06
9.99941e-06
9.99971e-06
1.00001e-05
1.00005e-05
1.00008e-05
1.00009e-05
1.00008e-05
1.00006e-05
1.00004e-05
1.00002e-05
1.00001e-05
1.00002e-05
1.00003e-05
1.00003e-05
1.00003e-05
1.00003e-05
1.00003e-05
1.00001e-05
9.99999e-06
9.99992e-06
9.99992e-06
9.99994e-06
1e-05
1.00001e-05
1.00002e-05
1.00002e-05
1.00002e-05
1.00002e-05
1.00003e-05
1.00003e-05
1.00004e-05
1.00004e-05
1.00004e-05
1.00003e-05
1.00002e-05
1.00002e-05
1.00002e-05
1.00002e-05
1.00002e-05
1.00002e-05
1.00002e-05
1.00002e-05
1.00001e-05
1.00001e-05
1.00001e-05
1e-05
1e-05
1e-05
1.00001e-05
1.00002e-05
1.00002e-05
1.00003e-05
1.00003e-05
1.00003e-05
1.00002e-05
1.00002e-05
1.00002e-05
1.00002e-05
1.00002e-05
1.00002e-05
1.00003e-05
1.00002e-05
1.00001e-05
9.99999e-06
9.99994e-06
9.99991e-06
9.99997e-06
1.00001e-05
1.00003e-05
1.00004e-05
1.00005e-05
1.00005e-05
1.00005e-05
1.00005e-05
1.00005e-05
1.00005e-05
1.00004e-05
1.00003e-05
1.00001e-05
1e-05
9.99999e-06
1e-05
1.00001e-05
1.00003e-05
1.00005e-05
1.00005e-05
1.00005e-05
1.00004e-05
1.00003e-05
1.00002e-05
1.00001e-05
1.00001e-05
1.00002e-05
1.00001e-05
1.00001e-05
1.00002e-05
1.00001e-05
1.00001e-05
1.00002e-05
1.00003e-05
1.00004e-05
1.00004e-05
1.00004e-05
1.00003e-05
1.00002e-05
1.00001e-05
1e-05
1e-05
1.00001e-05
1.00003e-05
1.00005e-05
1.00006e-05
1.00006e-05
1.00005e-05
1.00003e-05
1.00002e-05
1.00001e-05
1.00001e-05
1.00002e-05
1.00003e-05
1.00005e-05
1.00005e-05
1.00005e-05
1.00005e-05
1.00004e-05
1.00003e-05
1.00002e-05
1e-05
9.99995e-06
9.99986e-06
9.99988e-06
1e-05
1.00002e-05
1.00003e-05
1.00004e-05
1.00005e-05
1.00006e-05
1.00005e-05
1.00004e-05
1.00003e-05
1.00003e-05
1.00003e-05
1.00003e-05
1.00004e-05
1.00003e-05
1.00003e-05
1.00002e-05
1.00003e-05
1.00003e-05
1.00004e-05
1.00004e-05
1.00005e-05
1.00005e-05
1.00003e-05
1.00002e-05
1.00002e-05
1.00002e-05
1.00003e-05
1.00004e-05
1.00005e-05
1.00005e-05
1.00004e-05
1.00004e-05
1.00004e-05
1.00004e-05
1.00003e-05
1.00003e-05
1.00002e-05
1.00002e-05
1.00002e-05
1.00002e-05
1.00002e-05
1.00003e-05
1.00003e-05
1.00003e-05
1.00004e-05
1.00003e-05
1.00004e-05
1.00004e-05
1.00004e-05
1.00004e-05
1.00003e-05
1.00003e-05
1.00003e-05
1.00003e-05
1.00003e-05
1.00002e-05
1.00002e-05
1.00003e-05
1.00003e-05
1.00004e-05
1.00004e-05
1.00004e-05
1.00004e-05
1.00004e-05
1.00003e-05
1.00002e-05
1.00002e-05
1.00002e-05
1.00001e-05
1.00001e-05
1.00001e-05
1.00001e-05
1.00001e-05
1.00001e-05
1.00002e-05
1.00002e-05
1.00002e-05
1.00003e-05
1.00004e-05
1.00004e-05
1.00004e-05
1.00003e-05
1.00003e-05
1.00003e-05
1.00003e-05
1.00004e-05
1.00004e-05
1.00003e-05
1.00003e-05
1.00002e-05
1.00002e-05
1.00002e-05
1.00002e-05
1.00002e-05
1.00003e-05
1.00004e-05
1.00004e-05
1.00004e-05
1.00004e-05
1.00004e-05
1.00004e-05
1.00004e-05
1.00004e-05
1.00004e-05
1.00003e-05
1.00003e-05
1.00003e-05
1.00003e-05
1.00003e-05
1.00003e-05
1.00003e-05
1.00003e-05
1.00003e-05
1.00002e-05
1.00003e-05
1.00003e-05
1.00003e-05
1.00003e-05
1.00003e-05
1.00003e-05
1.00002e-05
1.00002e-05
1.00002e-05
1.00002e-05
1.00002e-05
1.00002e-05
1.00002e-05
1.00002e-05
1.00001e-05
1.00002e-05
1.00002e-05
1.00003e-05
1.00003e-05
1.00004e-05
1.00004e-05
1.00003e-05
1.00003e-05
1.00002e-05
1.00002e-05
1.00002e-05
1.00002e-05
1.00003e-05
1.00003e-05
1.00003e-05
1.00002e-05
1.00002e-05
1.00002e-05
1.00002e-05
1.00003e-05
1.00003e-05
1.00003e-05
1.00002e-05
1.00001e-05
1.00001e-05
1.00001e-05
1.00001e-05
1.00002e-05
1.00004e-05
1.00005e-05
1.00005e-05
1.00005e-05
1.00004e-05
1.00003e-05
1.00002e-05
1.00001e-05
1e-05
1e-05
1e-05
1.00001e-05
1.00001e-05
1.00002e-05
1.00002e-05
1.00003e-05
1.00003e-05
1.00002e-05
1.00002e-05
1.00001e-05
1.00001e-05
1.00002e-05
1.00002e-05
1.00002e-05
1.00002e-05
1.00002e-05
1.00002e-05
1.00002e-05
1.00002e-05
1.00002e-05
1.00002e-05
1.00002e-05
1.00002e-05
1.00002e-05
1.00002e-05
1.00003e-05
1.00002e-05
1.00002e-05
1.00001e-05
1.00001e-05
1.00001e-05
1.00001e-05
1.00001e-05
1.00002e-05
1.00002e-05
1.00002e-05
1.00002e-05
1.00001e-05
1.00001e-05
1.00001e-05
1.00001e-05
1.00002e-05
1.00002e-05
1.00002e-05
1.00002e-05
1.00002e-05
1.00001e-05
1.00001e-05
1.00001e-05
1.00002e-05
1.00002e-05
1.00002e-05
1.00001e-05
1.00001e-05
1.00001e-05
1.00001e-05
1.00001e-05
1.00002e-05
1.00002e-05
1.00002e-05
1.00002e-05
1.00002e-05
1.00001e-05
1.00001e-05
1.00001e-05
1.00001e-05
1e-05
1e-05
1e-05
1e-05
1e-05
1.00001e-05
1.00001e-05
1.00001e-05
1.00001e-05
1.00001e-05
1.00001e-05
9.99999e-06
9.99992e-06
9.9999e-06
9.99995e-06
1.00001e-05
1.00002e-05
1.00002e-05
1.00002e-05
1.00002e-05
1.00001e-05
1e-05
1e-05
1e-05
1.00001e-05
1.00001e-05
1.00001e-05
1.00001e-05
1e-05
1e-05
1e-05
1e-05
9.99999e-06
1e-05
1e-05
1e-05
1e-05
1e-05
1e-05
1e-05
1e-05
1e-05
1e-05
9.99999e-06
9.99994e-06
9.99994e-06
1e-05
1e-05
1.00001e-05
1.00001e-05
1.00001e-05
1.00001e-05
1.00001e-05
1e-05
1e-05
9.99999e-06
9.99997e-06
9.99999e-06
1e-05
1.00001e-05
1e-05
1e-05
1e-05
1e-05
9.99998e-06
1e-05
1e-05
1e-05
9.99997e-06
9.99994e-06
9.99994e-06
9.99993e-06
9.99993e-06
9.99996e-06
1e-05
1e-05
1e-05
1e-05
1e-05
9.99999e-06
9.99996e-06
9.99996e-06
1e-05
1e-05
1e-05
9.99999e-06
1e-05
9.99995e-06
9.9999e-06
9.9999e-06
9.99995e-06
9.99998e-06
1e-05
1e-05
1.00001e-05
1e-05
1e-05
1e-05
1e-05
9.99995e-06
9.99987e-06
9.99986e-06
9.99992e-06
9.99996e-06
9.99998e-06
1e-05
1e-05
9.99999e-06
9.99992e-06
9.9999e-06
9.99993e-06
9.99994e-06
9.99996e-06
9.99999e-06
1e-05
9.99997e-06
9.9999e-06
9.99988e-06
9.99994e-06
9.99996e-06
9.99996e-06
9.99996e-06
9.99998e-06
9.99998e-06
9.99995e-06
9.99993e-06
9.99996e-06
9.99996e-06
9.99997e-06
9.99995e-06
9.99996e-06
9.99994e-06
9.99993e-06
9.9999e-06
9.9999e-06
9.99987e-06
9.99986e-06
9.99988e-06
9.99994e-06
9.99994e-06
9.99992e-06
9.99991e-06
9.99995e-06
9.99993e-06
9.99991e-06
9.9999e-06
9.99994e-06
9.99994e-06
9.99994e-06
9.99994e-06
9.99997e-06
9.99996e-06
9.99997e-06
9.99995e-06
9.99995e-06
9.99991e-06
9.9999e-06
9.99988e-06
9.99992e-06
9.99992e-06
9.99991e-06
9.99993e-06
9.99999e-06
9.99999e-06
9.99999e-06
9.99996e-06
9.99998e-06
9.99997e-06
9.99997e-06
9.99991e-06
9.99989e-06
9.99987e-06
9.9999e-06
9.99991e-06
9.99995e-06
9.99993e-06
9.9999e-06
9.99989e-06
9.99994e-06
9.99996e-06
1e-05
1e-05
1e-05
9.99999e-06
9.99999e-06
9.99996e-06
9.99996e-06
9.99995e-06
9.99996e-06
9.99996e-06
9.99999e-06
9.99998e-06
9.99999e-06
9.99999e-06
1e-05
1e-05
9.99997e-06
9.99992e-06
9.99989e-06
9.99985e-06
9.99987e-06
9.99991e-06
9.99995e-06
9.99994e-06
9.99994e-06
9.99995e-06
9.99997e-06
9.99994e-06
9.99992e-06
9.99994e-06
9.99998e-06
9.99997e-06
9.99998e-06
9.99995e-06
9.99995e-06
9.99991e-06
9.9999e-06
9.99991e-06
9.99992e-06
9.9999e-06
9.99993e-06
9.99996e-06
1e-05
1e-05
1e-05
9.99998e-06
9.99996e-06
9.99994e-06
9.99989e-06
9.99985e-06
9.99986e-06
9.99994e-06
9.99998e-06
9.99998e-06
9.99998e-06
9.99997e-06
9.99992e-06
9.99987e-06
9.99985e-06
9.99987e-06
9.99987e-06
9.99987e-06
9.9999e-06
9.99995e-06
9.99994e-06
9.9999e-06
9.99988e-06
9.9999e-06
9.99989e-06
9.99989e-06
9.99991e-06
9.99996e-06
9.99996e-06
9.99994e-06
9.99992e-06
9.99994e-06
9.99992e-06
9.9999e-06
9.99991e-06
9.99994e-06
9.99995e-06
9.99994e-06
9.99994e-06
9.99996e-06
9.99994e-06
9.9999e-06
9.99988e-06
9.99991e-06
9.99991e-06
9.99991e-06
9.99994e-06
9.99999e-06
9.99998e-06
9.99995e-06
9.99993e-06
9.99994e-06
9.99992e-06
9.99991e-06
9.99993e-06
9.99995e-06
9.9999e-06
9.99985e-06
9.99985e-06
9.9999e-06
9.9999e-06
9.99987e-06
9.99986e-06
9.99989e-06
9.9999e-06
9.99991e-06
9.99995e-06
1e-05
1e-05
9.99997e-06
9.99994e-06
9.99994e-06
9.99991e-06
9.99989e-06
9.9999e-06
9.99995e-06
9.99995e-06
9.99993e-06
9.99992e-06
9.99994e-06
9.99993e-06
9.9999e-06
9.9999e-06
9.99992e-06
9.99991e-06
9.99989e-06
9.99988e-06
9.99991e-06
9.9999e-06
9.99989e-06
9.99991e-06
9.99995e-06
9.99997e-06
9.99999e-06
1e-05
1e-05
9.99997e-06
9.99996e-06
9.99993e-06
9.99996e-06
9.99995e-06
9.99992e-06
9.99986e-06
9.99987e-06
9.99989e-06
9.99996e-06
1e-05
1.00001e-05
1.00001e-05
1.00001e-05
1e-05
1e-05
1e-05
9.99997e-06
9.99992e-06
9.99996e-06
1e-05
1e-05
1.00001e-05
1.00001e-05
1.00001e-05
1e-05
9.99994e-06
9.99993e-06
9.99992e-06
9.99993e-06
9.99992e-06
9.99996e-06
9.99997e-06
9.99999e-06
9.99999e-06
1e-05
1e-05
9.99997e-06
9.99993e-06
9.99995e-06
9.99996e-06
1e-05
1e-05
1.00001e-05
1.00001e-05
1.00002e-05
1.00001e-05
1.00001e-05
1.00001e-05
1.00001e-05
1.00001e-05
1.00001e-05
1.00001e-05
1.00001e-05
1e-05
1.00001e-05
1.00001e-05
1e-05
9.99997e-06
9.99996e-06
9.99995e-06
9.99999e-06
1e-05
1.00001e-05
1.00001e-05
1.00001e-05
9.99997e-06
9.99991e-06
9.99985e-06
9.99985e-06
9.99989e-06
9.99996e-06
1e-05
1.00001e-05
1.00001e-05
1.00001e-05
1.00001e-05
1e-05
1e-05
1e-05
9.99997e-06
9.9999e-06
9.99983e-06
9.9998e-06
9.99975e-06
9.99979e-06
9.99989e-06
1e-05
1.00001e-05
1.00001e-05
1.00001e-05
1.00001e-05
1.00001e-05
9.99994e-06
9.99985e-06
9.99982e-06
9.99988e-06
9.99995e-06
9.99998e-06
1e-05
1.00001e-05
1.00001e-05
1e-05
1e-05
1e-05
9.99996e-06
9.9999e-06
9.99989e-06
9.99994e-06
9.99995e-06
9.99995e-06
9.99996e-06
1e-05
9.99999e-06
9.99997e-06
9.99995e-06
9.99995e-06
9.99991e-06
9.99987e-06
9.99988e-06
9.99994e-06
9.99998e-06
1e-05
1e-05
1.00001e-05
1e-05
9.99999e-06
9.99996e-06
9.99997e-06
9.99995e-06
9.99992e-06
9.99992e-06
9.99995e-06
9.99994e-06
9.99993e-06
9.99994e-06
9.99997e-06
9.99996e-06
9.99994e-06
9.99993e-06
9.99995e-06
9.99993e-06
9.99991e-06
9.99992e-06
9.99996e-06
9.99996e-06
9.99993e-06
9.99992e-06
9.99992e-06
9.99988e-06
9.99982e-06
9.99981e-06
9.99985e-06
9.99987e-06
9.9999e-06
9.99995e-06
1e-05
1e-05
1e-05
1e-05
1e-05
9.9999e-06
9.99971e-06
9.99956e-06
9.99959e-06
9.99989e-06
1.00005e-05
1.00013e-05
1.00019e-05
1.00019e-05
1.00011e-05
9.99944e-06
9.99659e-06
9.99278e-06
9.98826e-06
9.98342e-06
9.9788e-06
9.97575e-06
9.97567e-06
9.98021e-06
9.99273e-06
1.00135e-05
1.00422e-05
1.00761e-05
1.0112e-05
1.01401e-05
1.01551e-05
1.01552e-05
1.01353e-05
1.0095e-05
1.00286e-05
9.92535e-06
9.76036e-06
9.54531e-06
9.29945e-06
9.03314e-06
8.83721e-06
8.76609e-06
8.91262e-06
9.35479e-06
1.00441e-05
1.10434e-05
1.21723e-05
1.34983e-05
1.47948e-05
1.6257e-05
1.76183e-05
1.90324e-05
2.02968e-05
2.15563e-05
2.27627e-05
2.39073e-05
2.49106e-05
2.5909e-05
2.68271e-05
2.76397e-05
2.82932e-05
2.8887e-05
2.94057e-05
2.97967e-05
3.00388e-05
3.01888e-05
3.02758e-05
3.02239e-05
3.00752e-05
2.98299e-05
2.95456e-05
2.91511e-05
2.87466e-05
2.83427e-05
2.79924e-05
2.75738e-05
2.70837e-05
2.64062e-05
2.56021e-05
2.45644e-05
2.34722e-05
2.22973e-05
2.11652e-05
1.9995e-05
1.88847e-05
1.76866e-05
1.64573e-05
1.50609e-05
1.37277e-05
1.24263e-05
1.12327e-05
9.93225e-06
8.62103e-06
8.87517e-06
1.3134e-05
2.05183e-05
2.83785e-05
3.43635e-05
3.64146e-05
3.33366e-05
2.68437e-05
2.42662e-05
3.10718e-05
4.67818e-05
5.87477e-05
6.57676e-05
6.98111e-05
7.22323e-05
7.37658e-05
7.44224e-05
7.40389e-05
7.32339e-05
7.22126e-05
7.11272e-05
7.00647e-05
6.88218e-05
6.77616e-05
6.69665e-05
6.64249e-05
6.61978e-05
6.61597e-05
6.64239e-05
6.68593e-05
6.73762e-05
6.78818e-05
6.82971e-05
6.87094e-05
6.90224e-05
6.92581e-05
6.94095e-05
6.95165e-05
6.95005e-05
6.94192e-05
6.92923e-05
6.91521e-05
6.901e-05
6.89544e-05
6.88997e-05
6.88572e-05
6.88587e-05
6.88769e-05
6.88672e-05
6.88652e-05
6.88841e-05
6.88941e-05
6.88775e-05
6.88696e-05
6.88861e-05
6.88967e-05
6.88754e-05
6.8861e-05
6.88722e-05
6.88827e-05
6.88621e-05
6.88525e-05
6.88694e-05
6.88832e-05
6.88611e-05
6.88465e-05
6.8857e-05
6.88643e-05
6.88377e-05
6.88245e-05
6.88437e-05
6.88654e-05
6.88586e-05
6.88674e-05
6.8907e-05
6.89426e-05
6.8941e-05
6.89428e-05
6.89646e-05
6.89757e-05
6.89442e-05
6.89163e-05
6.89105e-05
6.89009e-05
6.8856e-05
6.88262e-05
6.88331e-05
6.88455e-05
6.88194e-05
6.88109e-05
6.88373e-05
6.88533e-05
6.88041e-05
6.87601e-05
6.87455e-05
6.87371e-05
6.87118e-05
6.87154e-05
6.8765e-05
6.88284e-05
6.88702e-05
6.89257e-05
6.90044e-05
6.90638e-05
6.90647e-05
6.90494e-05
6.90375e-05
6.90091e-05
6.89449e-05
6.8904e-05
6.89182e-05
6.89672e-05
6.90151e-05
6.90976e-05
6.92173e-05
6.931e-05
6.93143e-05
6.92596e-05
6.91533e-05
6.89779e-05
6.87379e-05
6.85199e-05
6.83946e-05
6.84002e-05
6.85287e-05
6.88167e-05
6.92473e-05
6.97166e-05
7.00942e-05
7.03122e-05
7.02744e-05
6.99046e-05
6.92531e-05
6.84324e-05
6.75562e-05
6.69429e-05
6.69438e-05
6.77082e-05
6.91647e-05
7.11371e-05
7.33137e-05
7.49545e-05
7.47753e-05
7.16797e-05
6.46888e-05
5.31021e-05
3.73431e-05
2.60129e-05
2.47193e-05
2.59962e-05
2.80273e-05
3.02092e-05
3.03379e-05
2.85719e-05
2.69215e-05
2.59888e-05
2.49955e-05
2.39567e-05
2.35333e-05
2.36606e-05
2.37534e-05
2.36764e-05
2.3677e-05
2.38077e-05
2.37602e-05
2.32943e-05
2.25358e-05
2.16042e-05
2.06512e-05
1.9571e-05
1.85133e-05
1.7431e-05
1.65863e-05
1.60514e-05
1.59871e-05
1.62409e-05
1.67103e-05
1.73456e-05
1.80081e-05
1.86174e-05
1.9111e-05
1.95526e-05
1.99605e-05
2.02827e-05
2.05374e-05
2.07861e-05
2.1068e-05
2.13078e-05
2.1445e-05
2.17289e-05
2.16881e-05
2.16558e-05
2.1434e-05
2.12835e-05
2.0842e-05
2.048e-05
2.00204e-05
1.95326e-05
1.89916e-05
1.84179e-05
1.77835e-05
1.69792e-05
1.63137e-05
1.55588e-05
1.47428e-05
1.39308e-05
1.30733e-05
1.22446e-05
1.14954e-05
1.07515e-05
1.01337e-05
9.62051e-06
9.21345e-06
8.91918e-06
8.76292e-06
8.73999e-06
8.83146e-06
9.00561e-06
9.24114e-06
9.48385e-06
9.72573e-06
9.92719e-06
1.00764e-05
1.01668e-05
1.02022e-05
1.02004e-05
1.01709e-05
1.01292e-05
1.00831e-05
1.00409e-05
1.00087e-05
9.98651e-06
9.97563e-06
9.97203e-06
9.97429e-06
9.9797e-06
9.98646e-06
9.99299e-06
9.99796e-06
1.00016e-05
1.00033e-05
1.00036e-05
1.00029e-05
1.00016e-05
1.00004e-05
9.99962e-06
9.99928e-06
9.99933e-06
9.99959e-06
9.99988e-06
1.00001e-05
1.00001e-05
1.00002e-05
1.00002e-05
1.00001e-05
1e-05
9.99996e-06
9.99993e-06
9.99991e-06
9.9999e-06
9.99994e-06
1e-05
1.00001e-05
1.00002e-05
1.00002e-05
1.00002e-05
1.00002e-05
1.00001e-05
1.00001e-05
1.00002e-05
1.00002e-05
1.00002e-05
1.00001e-05
1.00001e-05
9.99998e-06
9.99993e-06
1e-05
1.00002e-05
1.00003e-05
1.00004e-05
1.00004e-05
1.00003e-05
1.00002e-05
1.00001e-05
1e-05
1e-05
1e-05
1.00001e-05
1.00001e-05
1.00002e-05
1.00003e-05
1.00003e-05
1.00002e-05
1.00002e-05
1.00001e-05
9.99993e-06
9.99984e-06
9.99978e-06
9.99972e-06
9.99968e-06
9.99973e-06
9.99986e-06
9.99998e-06
1.00001e-05
1.00001e-05
1.00002e-05
1.00001e-05
1.00001e-05
1.00001e-05
1.00001e-05
1.00001e-05
1.00002e-05
1.00003e-05
1.00003e-05
1.00003e-05
1.00003e-05
1.00002e-05
1.00002e-05
1.00001e-05
1.00001e-05
1.00001e-05
1.00001e-05
1.00002e-05
1.00002e-05
1.00002e-05
1.00002e-05
1e-05
9.99986e-06
9.99971e-06
9.99966e-06
9.99968e-06
9.99976e-06
9.99986e-06
9.99998e-06
1e-05
9.99994e-06
9.99988e-06
9.99991e-06
1e-05
1.00003e-05
1.00006e-05
1.00007e-05
1.00007e-05
1.00005e-05
1.00002e-05
1e-05
9.99989e-06
9.99982e-06
9.99979e-06
9.99984e-06
9.9999e-06
9.99997e-06
1e-05
1.00001e-05
1.00001e-05
1.00001e-05
1.00001e-05
1e-05
9.99995e-06
9.99993e-06
1e-05
1.00002e-05
1.00003e-05
1.00004e-05
1.00004e-05
1.00004e-05
1.00003e-05
1.00001e-05
9.99986e-06
9.99975e-06
9.99969e-06
9.99977e-06
9.99992e-06
1.00002e-05
1.00004e-05
1.00004e-05
1.00004e-05
1.00002e-05
9.99998e-06
9.99984e-06
9.99972e-06
9.99963e-06
9.99948e-06
9.99939e-06
9.99933e-06
9.9994e-06
9.99954e-06
9.99977e-06
1.00001e-05
1.00003e-05
1.00005e-05
1.00006e-05
1.00006e-05
1.00005e-05
1.00002e-05
9.99997e-06
9.99972e-06
9.99958e-06
9.99959e-06
9.99982e-06
1.00001e-05
1.00004e-05
1.00006e-05
1.00006e-05
1.00006e-05
1.00004e-05
1.00001e-05
9.99991e-06
9.99984e-06
9.99983e-06
9.99992e-06
9.99999e-06
1e-05
9.99999e-06
9.99997e-06
1.00001e-05
1e-05
1e-05
9.99998e-06
9.99992e-06
9.9999e-06
9.99986e-06
9.99984e-06
9.99985e-06
9.99992e-06
9.99999e-06
1.00001e-05
1.00001e-05
1.00001e-05
1.00001e-05
1e-05
9.99991e-06
9.99983e-06
9.99979e-06
9.99983e-06
9.99992e-06
1e-05
1.00001e-05
1.00001e-05
1e-05
9.99995e-06
9.99989e-06
9.99991e-06
9.99997e-06
1.00001e-05
1.00001e-05
9.99996e-06
9.9998e-06
9.99973e-06
9.99971e-06
9.99974e-06
9.99979e-06
9.99987e-06
9.99991e-06
9.99991e-06
9.99989e-06
9.99987e-06
9.99985e-06
9.99986e-06
9.99989e-06
9.99995e-06
9.99998e-06
9.99996e-06
9.99993e-06
9.99995e-06
9.99998e-06
1e-05
1e-05
1e-05
9.99988e-06
9.99977e-06
9.9997e-06
9.99972e-06
9.99976e-06
9.99983e-06
9.9999e-06
1e-05
1e-05
1e-05
9.99997e-06
9.99991e-06
9.99989e-06
9.99999e-06
1.00001e-05
1.00001e-05
1e-05
9.99985e-06
9.99975e-06
9.99975e-06
9.99983e-06
9.99991e-06
1e-05
1.00001e-05
1.00002e-05
1.00001e-05
1.00001e-05
1.00001e-05
1.00001e-05
9.99999e-06
9.99992e-06
9.9999e-06
9.99987e-06
9.99983e-06
9.99985e-06
9.99987e-06
9.99991e-06
9.99996e-06
1.00001e-05
1.00001e-05
1.00002e-05
1.00002e-05
1.00002e-05
1.00002e-05
1.00001e-05
1e-05
1e-05
1e-05
1e-05
9.99997e-06
9.99996e-06
1e-05
1.00001e-05
1.00001e-05
1.00001e-05
9.99997e-06
9.99987e-06
9.99979e-06
9.99984e-06
9.99995e-06
1.00001e-05
1.00002e-05
1.00002e-05
1.00002e-05
1.00001e-05
9.99998e-06
9.99992e-06
9.99994e-06
1e-05
1.00001e-05
1.00001e-05
1.00001e-05
1e-05
9.99996e-06
9.99997e-06
9.99997e-06
9.99996e-06
9.99995e-06
9.99997e-06
1e-05
1e-05
1e-05
1e-05
1e-05
1e-05
1e-05
1e-05
1.00001e-05
1.00001e-05
1e-05
9.99992e-06
9.99989e-06
9.99996e-06
1.00001e-05
1.00004e-05
1.00006e-05
9.99991e-06
9.9976e-06
9.99302e-06
9.98874e-06
9.99189e-06
1.00115e-05
1.0063e-05
1.01331e-05
1.01957e-05
1.01945e-05
1.00442e-05
9.72786e-06
9.2157e-06
8.75059e-06
8.55906e-06
9.05297e-06
1.02889e-05
1.22713e-05
1.48747e-05
1.77609e-05
2.08316e-05
2.39951e-05
2.72291e-05
3.04736e-05
3.34443e-05
3.64938e-05
3.95564e-05
4.25312e-05
4.52445e-05
4.80222e-05
5.12558e-05
5.38772e-05
5.62567e-05
5.82881e-05
6.05449e-05
6.2652e-05
6.44804e-05
6.62693e-05
6.79008e-05
6.93619e-05
7.05578e-05
7.1724e-05
7.28826e-05
7.38578e-05
7.48375e-05
7.54659e-05
7.59854e-05
7.62029e-05
7.61286e-05
7.58518e-05
7.54557e-05
7.48327e-05
7.41322e-05
7.32066e-05
7.22961e-05
7.13855e-05
7.05337e-05
6.9587e-05
6.85443e-05
6.73844e-05
6.62898e-05
6.52929e-05
6.44534e-05
6.36591e-05
6.28543e-05
6.21275e-05
6.17998e-05
6.16731e-05
6.13706e-05
6.10431e-05
6.064e-05
5.99263e-05
5.91305e-05
5.85657e-05
5.80549e-05
5.77417e-05
5.77781e-05
5.83905e-05
5.91724e-05
6.03459e-05
6.17262e-05
6.34533e-05
6.50859e-05
6.70224e-05
6.88579e-05
7.08454e-05
7.26703e-05
7.49535e-05
7.68807e-05
7.9041e-05
8.11013e-05
8.37064e-05
8.6043e-05
8.88603e-05
9.23384e-05
9.6669e-05
0.00010169
0.000106516
0.00011055
0.000113433
0.00011507
0.000114125
0.000110303
0.000102699
9.3629e-05
8.24025e-05
7.43348e-05
7.58104e-05
0.000102715
0.000200315
0.000274442
0.0003214
0.000326833
0.000348043
0.000338513
0.000328398
0.00032766
0.000351627
0.000334462
0.000345863
0.000400763
0.00035698
0.000324707
0.000335592
0.000341061
0.000334288
0.000320253
0.000345015
0.000344249
0.000334312
0.000328295
0.000343483
0.000378482
0.000359938
0.000308578
0.00034637
0.000338274
0.000354563
0.000333399
0.000355413
0.000372124
0.000354509
0.000341029
0.00036612
0.000402901
0.000345442
0.000347417
0.000346923
0.00033431
0.000355705
0.000337644
0.000340749
0.000373982
0.00034121
0.000359372
0.000346631
0.00033786
0.000343758
0.000345278
0.000344979
0.000349556
0.000338607
0.000350501
0.000338053
0.000342027
0.0003481
0.000338389
0.000352045
0.000362841
0.000341037
0.000344472
0.000364127
0.000386533
0.000368365
0.000335418
0.000350432
0.000351323
0.000337576
0.00034036
0.000359468
0.000375036
0.000362359
0.000321942
0.00032979
0.000324598
0.000356099
0.000343511
0.000350575
0.000365656
0.000350912
0.00033923
0.000335744
0.000330414
0.000366762
0.000364927
0.000338393
0.000343508
0.000349189
0.000319503
0.000327744
0.00034792
0.000341214
0.000329371
0.000357066
0.000361897
0.00034156
0.00034888
0.000358133
0.000324023
0.000346007
0.000336691
0.000363119
0.000354195
0.000325255
0.000323394
0.000336029
0.000325181
0.000331485
0.00033121
0.000338884
0.000361565
0.00034414
0.000407566
0.000399257
0.000402156
0.00035093
0.000336603
0.000363874
0.000378296
0.000364865
0.00035484
0.000338823
0.000332251
0.000331768
0.000325627
0.000314168
0.000353435
0.000361717
0.000368014
0.000352641
0.000349147
0.000335165
0.000314375
0.000290976
0.000253122
0.000182395
0.000110867
6.10845e-05
4.81589e-05
5.12907e-05
6.38958e-05
7.66557e-05
9.05632e-05
0.00010007
0.000107026
0.000110414
0.000112361
0.000111294
0.000108726
0.000105687
0.000102888
9.93536e-05
9.57359e-05
9.21848e-05
8.84563e-05
8.49919e-05
8.12323e-05
7.82679e-05
7.52907e-05
7.30807e-05
7.0667e-05
6.89112e-05
6.67864e-05
6.52111e-05
6.31046e-05
6.1855e-05
6.05675e-05
5.99692e-05
5.91929e-05
5.88383e-05
5.86059e-05
5.87541e-05
5.89254e-05
5.93565e-05
5.98221e-05
6.063e-05
6.15182e-05
6.23658e-05
6.35152e-05
6.47091e-05
6.60569e-05
6.74459e-05
6.90631e-05
7.04503e-05
7.18871e-05
7.34223e-05
7.50073e-05
7.63238e-05
7.75129e-05
7.83911e-05
7.89944e-05
7.92421e-05
7.92905e-05
7.91836e-05
7.89552e-05
7.85445e-05
7.79131e-05
7.7035e-05