/*--------------------------------*- C++ -*----------------------------------*\
| =========                 |                                                 |
| \\      /  F ield         | foam-extend: Open Source CFD                    |
|  \\    /   O peration     | Version:     4.0                                |
|   \\  /    A nd           | Web:         http://www.foam-extend.org         |
|    \\/     M anipulation  |                                                 |
\*---------------------------------------------------------------------------*/
FoamFile
{
    version     2.0;
    format      ascii;
    class       volScalarField;
    location    "0.017";
    object      h;
}
// * * * * * * * * * * * * * * * * * * * * * * * * * * * * * * * * * * * * * //

dimensions      [0 1 0 0 0 0 0];

internalField   nonuniform List<scalar> 
176451
(
1.00045e-05
9.99602e-06
9.99416e-06
9.99829e-06
1.00029e-05
1.00037e-05
9.99652e-06
1.00001e-05
1e-05
1.00011e-05
1.00038e-05
1.00065e-05
1.00014e-05
9.9981e-06
9.99789e-06
9.99753e-06
9.99976e-06
1.00011e-05
1.0005e-05
9.9991e-06
1.00008e-05
1.00011e-05
9.99961e-06
1.00024e-05
1.0003e-05
1.00032e-05
1.00006e-05
9.99856e-06
9.99811e-06
1.00005e-05
9.99819e-06
1.00023e-05
1e-05
9.99569e-06
9.99852e-06
1.00044e-05
1.00035e-05
1.00028e-05
9.99862e-06
9.99592e-06
1.00002e-05
1.00028e-05
9.99811e-06
9.99917e-06
1.00013e-05
1.00005e-05
9.99954e-06
1.00005e-05
1.00028e-05
1.00043e-05
1.00039e-05
9.9999e-06
9.99773e-06
9.99725e-06
1.00017e-05
1.00024e-05
1.00013e-05
9.99982e-06
9.99676e-06
1.00036e-05
1.00026e-05
9.997e-06
9.99486e-06
1.00004e-05
1.00005e-05
1.00027e-05
1.00022e-05
1.00013e-05
1.00022e-05
9.99674e-06
1.00004e-05
1.00014e-05
9.99903e-06
1.00034e-05
1.00027e-05
1.0001e-05
9.99877e-06
1.00013e-05
9.99809e-06
9.99317e-06
9.99938e-06
1.00063e-05
9.9975e-06
9.99812e-06
9.99923e-06
9.99899e-06
1.00011e-05
1.00009e-05
9.999e-06
1.00018e-05
1.00008e-05
1.00015e-05
1.00016e-05
9.99989e-06
9.99847e-06
9.99538e-06
9.9972e-06
1.00012e-05
1.00031e-05
1.00003e-05
9.99954e-06
9.9997e-06
1.00018e-05
9.99976e-06
1.00013e-05
9.99889e-06
1.00006e-05
1.00026e-05
1.00038e-05
1.00027e-05
1.00033e-05
1.00015e-05
1.00016e-05
1.00006e-05
1.00018e-05
1.00046e-05
1.00021e-05
9.99992e-06
1.00036e-05
1.00012e-05
9.99975e-06
9.99601e-06
9.99568e-06
9.99859e-06
1.00027e-05
1.00009e-05
1.00005e-05
9.99984e-06
1.00002e-05
1.00022e-05
1.0002e-05
1.00034e-05
1.00004e-05
1.00028e-05
9.99856e-06
9.99946e-06
1.00055e-05
9.99672e-06
1.00001e-05
1.00002e-05
9.99913e-06
9.99887e-06
1.0006e-05
1.00022e-05
9.99714e-06
9.99873e-06
1.0003e-05
1.00048e-05
9.99809e-06
1.00014e-05
1.00052e-05
9.99961e-06
9.99872e-06
9.99897e-06
9.9977e-06
1.00006e-05
1.00013e-05
9.99891e-06
1.00014e-05
1.00019e-05
9.99982e-06
1.00003e-05
9.99633e-06
9.9981e-06
9.99974e-06
1.0002e-05
1.00007e-05
9.99967e-06
9.9987e-06
1.00016e-05
9.99523e-06
9.9991e-06
1.00044e-05
1.00011e-05
9.99759e-06
1.00001e-05
1.00033e-05
9.9952e-06
1.00008e-05
1.00022e-05
1.00014e-05
1.00007e-05
9.9945e-06
1.00007e-05
9.99783e-06
9.99955e-06
1.00007e-05
1.0005e-05
1.00076e-05
1.00031e-05
1.00066e-05
1.00005e-05
9.99423e-06
9.9889e-06
9.98531e-06
9.98418e-06
9.98528e-06
9.98791e-06
9.99126e-06
9.99443e-06
9.99695e-06
9.9985e-06
9.99927e-06
9.99951e-06
9.99954e-06
9.99953e-06
9.99962e-06
9.99979e-06
9.99995e-06
9.99991e-06
9.99968e-06
9.99936e-06
9.99914e-06
9.99915e-06
9.99955e-06
1.00004e-05
1.00016e-05
1.00029e-05
1.00043e-05
1.00055e-05
1.00066e-05
1.00075e-05
1.00082e-05
1.0009e-05
1.00099e-05
1.00109e-05
1.0012e-05
1.0013e-05
1.00137e-05
1.00136e-05
1.00127e-05
1.00112e-05
1.00091e-05
1.0007e-05
1.00052e-05
1.0004e-05
1.00034e-05
1.00032e-05
1.00031e-05
1.0003e-05
1.00026e-05
1.00019e-05
1.00012e-05
1.00004e-05
9.99986e-06
9.99942e-06
9.99922e-06
9.99907e-06
9.99889e-06
9.99868e-06
9.99854e-06
9.99841e-06
9.99846e-06
9.99866e-06
9.99907e-06
9.99953e-06
9.99987e-06
9.99995e-06
9.99977e-06
9.99932e-06
9.99865e-06
9.99792e-06
9.99742e-06
9.99724e-06
9.99743e-06
9.99798e-06
9.99879e-06
9.99964e-06
1.00003e-05
1.00007e-05
1.0001e-05
1.00012e-05
1.00015e-05
1.00021e-05
1.00029e-05
1.00036e-05
1.00039e-05
1.00036e-05
1.00026e-05
1.00009e-05
9.99884e-06
9.99664e-06
9.9948e-06
9.99338e-06
9.99243e-06
9.9919e-06
9.99176e-06
9.99176e-06
9.99177e-06
9.99174e-06
9.99174e-06
9.99172e-06
9.99174e-06
9.99186e-06
9.99213e-06
9.99248e-06
9.99286e-06
9.99336e-06
9.994e-06
9.99469e-06
9.99533e-06
9.99588e-06
9.99632e-06
9.99661e-06
9.99682e-06
9.99717e-06
9.99791e-06
9.99908e-06
1.00006e-05
1.00025e-05
1.00043e-05
1.00056e-05
1.00061e-05
1.00057e-05
1.00046e-05
1.00031e-05
1.00015e-05
1.00003e-05
9.99976e-06
9.9998e-06
1.00003e-05
1.0001e-05
1.00018e-05
1.00027e-05
1.00035e-05
1.00042e-05
1.0005e-05
1.00056e-05
1.00061e-05
1.00065e-05
1.00069e-05
1.00073e-05
1.00078e-05
1.00083e-05
1.0009e-05
1.00096e-05
1.00103e-05
1.00108e-05
1.00111e-05
1.00109e-05
1.00104e-05
1.00095e-05
1.00081e-05
1.00065e-05
1.00045e-05
1.00024e-05
1e-05
9.99757e-06
9.99537e-06
9.99362e-06
9.99246e-06
9.99208e-06
9.99255e-06
9.99388e-06
9.99592e-06
9.99862e-06
1.00017e-05
1.0005e-05
1.00077e-05
1.00093e-05
1.00094e-05
1.00079e-05
1.0005e-05
1.00013e-05
9.99775e-06
9.99491e-06
9.99329e-06
9.99305e-06
9.99399e-06
9.99569e-06
9.99754e-06
9.99914e-06
1.00002e-05
1.00007e-05
1.00006e-05
1.00004e-05
1.00002e-05
1.00003e-05
1.00007e-05
1.00014e-05
1.00022e-05
1.00032e-05
1.0004e-05
1.00045e-05
1.00048e-05
1.00048e-05
1.00044e-05
1.00036e-05
1.00027e-05
1.00017e-05
1.00007e-05
9.99973e-06
9.99879e-06
9.99781e-06
9.99669e-06
9.99548e-06
9.99434e-06
9.99334e-06
9.99253e-06
9.99199e-06
9.99175e-06
9.99179e-06
9.99205e-06
9.99256e-06
9.99325e-06
9.99401e-06
9.99462e-06
9.99496e-06
9.99499e-06
9.99476e-06
9.99437e-06
9.99408e-06
9.99409e-06
9.99449e-06
9.99524e-06
9.99631e-06
9.99762e-06
9.99908e-06
1.00005e-05
1.00016e-05
1.00025e-05
1.0003e-05
1.0003e-05
1.00027e-05
1.00023e-05
1.00021e-05
1.00021e-05
1.00025e-05
1.00034e-05
1.00047e-05
1.0006e-05
1.00073e-05
1.00086e-05
1.00094e-05
1.00097e-05
1.00096e-05
1.00089e-05
1.00079e-05
1.00065e-05
1.00052e-05
1.0004e-05
1.00032e-05
1.00026e-05
1.00024e-05
1.00022e-05
1.0002e-05
1.00015e-05
1.00009e-05
1.00002e-05
9.99924e-06
9.99781e-06
9.99603e-06
9.99372e-06
9.99104e-06
9.98802e-06
9.98538e-06
9.98346e-06
9.98262e-06
9.98282e-06
9.98412e-06
9.98636e-06
9.98914e-06
9.99238e-06
9.99552e-06
9.99855e-06
1.00011e-05
1.00032e-05
1.00047e-05
1.00056e-05
1.00062e-05
1.00064e-05
1.00067e-05
1.00071e-05
1.00077e-05
1.00084e-05
1.00092e-05
1.001e-05
1.00106e-05
1.0011e-05
1.0011e-05
1.00107e-05
1.00102e-05
1.00095e-05
1.00086e-05
1.00075e-05
1.00062e-05
1.00046e-05
1.00029e-05
1.00014e-05
1.00001e-05
9.9991e-06
9.99863e-06
9.99854e-06
9.99867e-06
9.99887e-06
9.99907e-06
9.99928e-06
9.99947e-06
9.99973e-06
1.00002e-05
1.0001e-05
1.0002e-05
1.00033e-05
1.00045e-05
1.00056e-05
1.00063e-05
1.00065e-05
1.00061e-05
1.00052e-05
1.0004e-05
1.00025e-05
1.00011e-05
9.99985e-06
9.99872e-06
9.9976e-06
9.99673e-06
9.9961e-06
9.99573e-06
9.99565e-06
9.99604e-06
9.99685e-06
9.99794e-06
9.99918e-06
1.00003e-05
1.00013e-05
1.00019e-05
1.00019e-05
1.00014e-05
1.00004e-05
9.99894e-06
9.99731e-06
9.99589e-06
9.99492e-06
9.9946e-06
9.99493e-06
9.99567e-06
9.99665e-06
9.99767e-06
9.9986e-06
9.99928e-06
9.9997e-06
9.99987e-06
9.99977e-06
9.99936e-06
9.99873e-06
9.99807e-06
9.99753e-06
9.99719e-06
9.99708e-06
9.99714e-06
9.99717e-06
9.99693e-06
9.99635e-06
9.99552e-06
9.99459e-06
9.99373e-06
9.99319e-06
9.99312e-06
9.99357e-06
9.99447e-06
9.99587e-06
9.99777e-06
1.00002e-05
1.00031e-05
1.00061e-05
1.00089e-05
1.00112e-05
1.00123e-05
1.00121e-05
1.00108e-05
1.00085e-05
1.00058e-05
1.00028e-05
1.00001e-05
9.99743e-06
9.9949e-06
9.99244e-06
9.99019e-06
9.98818e-06
9.98654e-06
9.98539e-06
9.98482e-06
9.98476e-06
9.98512e-06
9.98586e-06
9.9869e-06
9.98814e-06
9.98934e-06
9.99042e-06
9.99124e-06
9.99177e-06
9.99199e-06
9.99206e-06
9.99214e-06
9.99239e-06
9.99289e-06
9.99374e-06
9.99497e-06
9.99662e-06
9.99855e-06
1.00008e-05
1.00031e-05
1.00055e-05
1.00077e-05
1.00096e-05
1.0011e-05
1.00121e-05
1.00127e-05
1.0013e-05
1.00132e-05
1.00133e-05
1.00132e-05
1.0013e-05
1.00125e-05
1.00116e-05
1.00103e-05
1.00084e-05
1.00064e-05
1.00044e-05
1.00027e-05
1.00015e-05
1.00011e-05
1.00015e-05
1.00024e-05
1.00038e-05
1.00053e-05
1.00066e-05
1.00074e-05
1.00075e-05
1.00069e-05
1.00057e-05
1.00039e-05
1.00019e-05
1.00002e-05
9.99902e-06
9.99839e-06
9.99856e-06
9.99937e-06
1.00006e-05
1.00018e-05
1.00026e-05
1.00028e-05
1.00024e-05
1.00016e-05
1.00009e-05
1.00006e-05
1.00012e-05
1.00025e-05
1.00044e-05
1.00065e-05
1.00082e-05
1.00092e-05
1.00093e-05
1.00087e-05
1.00076e-05
1.00059e-05
1.00038e-05
1.00013e-05
9.99864e-06
9.99545e-06
9.9925e-06
9.99004e-06
9.98861e-06
9.98851e-06
9.99e-06
9.9931e-06
9.99719e-06
1.0002e-05
1.00063e-05
1.00098e-05
1.00119e-05
1.00124e-05
1.00115e-05
1.00094e-05
1.0007e-05
1.00045e-05
1.00027e-05
1.00015e-05
1.00009e-05
1.00008e-05
1.0001e-05
1.00013e-05
1.00015e-05
1.00019e-05
1.00023e-05
1.0003e-05
1.00036e-05
1.00043e-05
1.00049e-05
1.00053e-05
1.00054e-05
1.00052e-05
1.00046e-05
1.00038e-05
1.00025e-05
1.00007e-05
9.99842e-06
9.99584e-06
9.9932e-06
9.99073e-06
9.98885e-06
9.98777e-06
9.98744e-06
9.98763e-06
9.98806e-06
9.98846e-06
9.98859e-06
9.98846e-06
9.98816e-06
9.98782e-06
9.98772e-06
9.98793e-06
9.98866e-06
9.99001e-06
9.99205e-06
9.99507e-06
9.99897e-06
1.00038e-05
1.00089e-05
1.00141e-05
1.00184e-05
1.00213e-05
1.00222e-05
1.00212e-05
1.00187e-05
1.0015e-05
1.00112e-05
1.00075e-05
1.00044e-05
1.00019e-05
9.99982e-06
9.99786e-06
9.99572e-06
9.99333e-06
9.99095e-06
9.98876e-06
9.98704e-06
9.986e-06
9.98578e-06
9.98631e-06
9.98731e-06
9.98859e-06
9.98989e-06
9.99108e-06
9.99206e-06
9.99296e-06
9.99397e-06
9.9953e-06
9.99708e-06
9.9995e-06
1.00025e-05
1.00061e-05
1.001e-05
1.00139e-05
1.00175e-05
1.00206e-05
1.00226e-05
1.00235e-05
1.00233e-05
1.00223e-05
1.00208e-05
1.00192e-05
1.00179e-05
1.00169e-05
1.00158e-05
1.00142e-05
1.00117e-05
1.00079e-05
1.00025e-05
9.9959e-06
9.98894e-06
9.98234e-06
9.97717e-06
9.97425e-06
9.97415e-06
9.97679e-06
9.98142e-06
9.98718e-06
9.9928e-06
9.99751e-06
1.00005e-05
1.00018e-05
1.00016e-05
1.00004e-05
9.99861e-06
9.99677e-06
9.99519e-06
9.99384e-06
9.99267e-06
9.99163e-06
9.99082e-06
9.99037e-06
9.99051e-06
9.99153e-06
9.99348e-06
9.99623e-06
9.99924e-06
1.0002e-05
1.00039e-05
1.00046e-05
1.00042e-05
1.00028e-05
1.00011e-05
9.99943e-06
9.99818e-06
9.99746e-06
9.99727e-06
9.99741e-06
9.99758e-06
9.99756e-06
9.9972e-06
9.99639e-06
9.99507e-06
9.99336e-06
9.99156e-06
9.98987e-06
9.98852e-06
9.98772e-06
9.98757e-06
9.98804e-06
9.98898e-06
9.99035e-06
9.99198e-06
9.99376e-06
9.99574e-06
9.9979e-06
1.00003e-05
1.00027e-05
1.00052e-05
1.00074e-05
1.0009e-05
1.00098e-05
1.00095e-05
1.00082e-05
1.00059e-05
1.00032e-05
1.00001e-05
9.99747e-06
9.99554e-06
9.99458e-06
9.99448e-06
9.99523e-06
9.99658e-06
9.99809e-06
9.99943e-06
1.00002e-05
1.00004e-05
1e-05
9.99914e-06
9.99827e-06
9.99765e-06
9.99756e-06
9.998e-06
9.99894e-06
1.00003e-05
1.00017e-05
1.0003e-05
1.00039e-05
1.00046e-05
1.00048e-05
1.00047e-05
1.00044e-05
1.00042e-05
1.0004e-05
1.00038e-05
1.00038e-05
1.00039e-05
1.00042e-05
1.00043e-05
1.00043e-05
1.00038e-05
1.00028e-05
1.00011e-05
9.99894e-06
9.99639e-06
9.99365e-06
9.99102e-06
9.98878e-06
9.98723e-06
9.98642e-06
9.98639e-06
9.9872e-06
9.98876e-06
9.99083e-06
9.99328e-06
9.99574e-06
9.99807e-06
9.99997e-06
1.00014e-05
1.00023e-05
1.00027e-05
1.00025e-05
1.00019e-05
1.00009e-05
9.99981e-06
9.99869e-06
9.99759e-06
9.99665e-06
9.99588e-06
9.99525e-06
9.99465e-06
9.99413e-06
9.9937e-06
9.99341e-06
9.99352e-06
9.99416e-06
9.99547e-06
9.99743e-06
9.99995e-06
1.00027e-05
1.00053e-05
1.00075e-05
1.00091e-05
1.00098e-05
1.001e-05
1.00096e-05
1.00091e-05
1.00085e-05
1.00079e-05
1.00074e-05
1.00068e-05
1.00059e-05
1.00047e-05
1.00032e-05
1.00015e-05
9.99958e-06
9.99782e-06
9.99645e-06
9.99554e-06
9.99507e-06
9.99501e-06
9.99529e-06
9.99577e-06
9.99626e-06
9.99671e-06
9.99704e-06
9.99717e-06
9.99693e-06
9.99635e-06
9.99553e-06
9.99458e-06
9.99364e-06
9.99294e-06
9.99273e-06
9.99317e-06
9.99424e-06
9.99593e-06
9.99801e-06
1.00003e-05
1.00021e-05
1.00033e-05
1.00037e-05
1.00032e-05
1.00021e-05
1.00008e-05
9.99966e-06
9.99916e-06
9.99939e-06
1.00003e-05
1.00017e-05
1.00032e-05
1.00045e-05
1.00054e-05
1.00057e-05
1.00057e-05
1.00055e-05
1.00051e-05
1.00048e-05
1.00045e-05
1.00042e-05
1.00037e-05
1.00031e-05
1.0002e-05
1.00006e-05
9.99871e-06
9.99674e-06
9.99489e-06
9.99344e-06
9.99264e-06
9.99263e-06
9.99332e-06
9.9944e-06
9.99561e-06
9.99666e-06
9.99746e-06
9.99792e-06
9.99822e-06
9.99855e-06
9.99906e-06
9.99974e-06
1.00005e-05
1.00013e-05
1.00019e-05
1.00022e-05
1.00021e-05
1.00017e-05
1.00012e-05
1.00005e-05
9.99982e-06
9.99922e-06
9.99865e-06
9.99803e-06
9.99741e-06
9.99692e-06
9.99668e-06
9.99682e-06
9.99753e-06
9.99885e-06
1.00008e-05
1.00029e-05
1.00052e-05
1.00072e-05
1.00086e-05
1.00092e-05
1.0009e-05
1.00079e-05
1.00061e-05
1.0004e-05
1.00017e-05
9.99979e-06
9.9984e-06
9.99772e-06
9.99798e-06
9.99904e-06
1.00006e-05
1.00022e-05
1.00034e-05
1.00038e-05
1.00033e-05
1.00017e-05
9.99934e-06
9.99663e-06
9.99415e-06
9.9921e-06
9.99108e-06
9.99106e-06
9.99193e-06
9.99341e-06
9.99509e-06
9.99677e-06
9.99821e-06
9.99938e-06
1.00003e-05
1.0001e-05
1.00016e-05
1.00021e-05
1.00027e-05
1.00032e-05
1.00035e-05
1.00035e-05
1.00032e-05
1.00023e-05
1.0001e-05
9.99913e-06
9.99713e-06
9.995e-06
9.99315e-06
9.99167e-06
9.99106e-06
9.99127e-06
9.99227e-06
9.99389e-06
9.9957e-06
9.99738e-06
9.99847e-06
9.99878e-06
9.99836e-06
9.99735e-06
9.99629e-06
9.99554e-06
9.99566e-06
9.99689e-06
9.99917e-06
1.00024e-05
1.00059e-05
1.00093e-05
1.00118e-05
1.00133e-05
1.00136e-05
1.00125e-05
1.00106e-05
1.0008e-05
1.00052e-05
1.00025e-05
1.00003e-05
9.99848e-06
9.99749e-06
9.99711e-06
9.9974e-06
9.9982e-06
9.99932e-06
1.00006e-05
1.00019e-05
1.00031e-05
1.0004e-05
1.00048e-05
1.00055e-05
1.00059e-05
1.00062e-05
1.00062e-05
1.00059e-05
1.0005e-05
1.00036e-05
1.00015e-05
9.99897e-06
9.99618e-06
9.99358e-06
9.99129e-06
9.98974e-06
9.98899e-06
9.9893e-06
9.99057e-06
9.99259e-06
9.9952e-06
9.99791e-06
1.00005e-05
1.00024e-05
1.00036e-05
1.0004e-05
1.00037e-05
1.00028e-05
1.00017e-05
1.00007e-05
9.99979e-06
9.99932e-06
9.99921e-06
9.99933e-06
9.99955e-06
9.99975e-06
9.99983e-06
9.99971e-06
9.99945e-06
9.99916e-06
9.99893e-06
9.99885e-06
9.99905e-06
9.99961e-06
1.00005e-05
1.00015e-05
1.00024e-05
1.0003e-05
1.00029e-05
1.00022e-05
1.00006e-05
9.99854e-06
9.99619e-06
9.99392e-06
9.99208e-06
9.99106e-06
9.99097e-06
9.99177e-06
9.99334e-06
9.99537e-06
9.99763e-06
9.99969e-06
1.00014e-05
1.00025e-05
1.00033e-05
1.00035e-05
1.00034e-05
1.00032e-05
1.00029e-05
1.00024e-05
1.00018e-05
1.00008e-05
9.99957e-06
9.9979e-06
9.99595e-06
9.99407e-06
9.9925e-06
9.99157e-06
9.99156e-06
9.99262e-06
9.99475e-06
9.99762e-06
1.00009e-05
1.00042e-05
1.0007e-05
1.00088e-05
1.00095e-05
1.0009e-05
1.00075e-05
1.00053e-05
1.00028e-05
1.00004e-05
9.99831e-06
9.99677e-06
9.99585e-06
9.9956e-06
9.99587e-06
9.99643e-06
9.99723e-06
9.99815e-06
9.99907e-06
9.99974e-06
1.00001e-05
9.99998e-06
9.99951e-06
9.99873e-06
9.99784e-06
9.99717e-06
9.99687e-06
9.99696e-06
9.99745e-06
9.99819e-06
9.99901e-06
9.99963e-06
9.99997e-06
1e-05
9.99987e-06
9.99945e-06
9.99888e-06
9.99835e-06
9.99799e-06
9.99786e-06
9.99801e-06
9.99849e-06
9.9993e-06
1.00003e-05
1.00015e-05
1.00026e-05
1.00036e-05
1.00045e-05
1.0005e-05
1.00052e-05
1.00051e-05
1.00047e-05
1.00042e-05
1.00036e-05
1.00031e-05
1.00028e-05
1.00027e-05
1.00028e-05
1.00032e-05
1.00036e-05
1.0004e-05
1.00043e-05
1.00044e-05
1.00041e-05
1.00035e-05
1.00026e-05
1.00015e-05
1.00001e-05
9.99875e-06
9.99745e-06
9.99649e-06
9.9958e-06
9.9956e-06
9.99577e-06
9.99625e-06
9.99686e-06
9.99743e-06
9.99789e-06
9.99813e-06
9.99802e-06
9.99762e-06
9.99695e-06
9.99624e-06
9.99546e-06
9.99488e-06
9.99451e-06
9.99458e-06
9.9951e-06
9.99605e-06
9.99733e-06
9.99873e-06
1.00002e-05
1.00013e-05
1.00022e-05
1.00026e-05
1.00026e-05
1.00021e-05
1.00011e-05
9.99993e-06
9.99852e-06
9.99724e-06
9.99608e-06
9.99533e-06
9.99492e-06
9.99499e-06
9.99545e-06
9.99624e-06
9.99727e-06
9.99838e-06
9.99951e-06
1.00005e-05
1.00012e-05
1.00017e-05
1.00019e-05
1.00019e-05
1.00018e-05
1.00017e-05
1.00016e-05
1.00017e-05
1.00017e-05
1.00018e-05
1.00017e-05
1.00015e-05
1.00009e-05
1.00002e-05
9.99929e-06
9.99845e-06
9.99769e-06
9.99728e-06
9.9972e-06
9.99753e-06
9.99818e-06
9.99905e-06
1e-05
1.0001e-05
1.00018e-05
1.00024e-05
1.00028e-05
1.0003e-05
1.00029e-05
1.00026e-05
1.00021e-05
1.00016e-05
1.00012e-05
1.00008e-05
1.00004e-05
1.00002e-05
9.99997e-06
9.99973e-06
9.9994e-06
9.99904e-06
9.99873e-06
9.99851e-06
9.99851e-06
9.9988e-06
9.99939e-06
1.00001e-05
1.00009e-05
1.00017e-05
1.00023e-05
1.00025e-05
1.00023e-05
1.00019e-05
1.00011e-05
1.00002e-05
9.99926e-06
9.99842e-06
9.99778e-06
9.99738e-06
9.9973e-06
9.99757e-06
9.99816e-06
9.99893e-06
9.99981e-06
1.00007e-05
1.00015e-05
1.00021e-05
1.00024e-05
1.00025e-05
1.00023e-05
1.00018e-05
1.0001e-05
1.00001e-05
9.99907e-06
9.99812e-06
9.99734e-06
9.9969e-06
9.99681e-06
9.99705e-06
9.99758e-06
9.99829e-06
9.99906e-06
9.99968e-06
1.00001e-05
1.00002e-05
9.99999e-06
9.9995e-06
9.99885e-06
9.99827e-06
9.99785e-06
9.99761e-06
9.99764e-06
9.99801e-06
9.99871e-06
9.99959e-06
1.00006e-05
1.00015e-05
1.00022e-05
1.00026e-05
1.00026e-05
1.00023e-05
1.00018e-05
1.0001e-05
1.00002e-05
9.9995e-06
9.99887e-06
9.99832e-06
9.99786e-06
9.99751e-06
9.99724e-06
9.99702e-06
9.99687e-06
9.9969e-06
9.99714e-06
9.99756e-06
9.9982e-06
9.99902e-06
9.99997e-06
1.00009e-05
1.00016e-05
1.00022e-05
1.00026e-05
1.00026e-05
1.00025e-05
1.00022e-05
1.00018e-05
1.00013e-05
1.0001e-05
1.00006e-05
1.00004e-05
1.00002e-05
1.00001e-05
9.99994e-06
9.99995e-06
1e-05
1.00001e-05
1.00002e-05
1.00003e-05
1.00004e-05
1.00004e-05
1.00003e-05
1.00004e-05
1.00005e-05
1.00006e-05
1.00008e-05
1.00011e-05
1.00013e-05
1.00015e-05
1.00015e-05
1.00014e-05
1.00011e-05
1.00007e-05
1.00001e-05
9.99966e-06
9.99923e-06
9.99892e-06
9.99867e-06
9.99857e-06
9.99851e-06
9.99851e-06
9.99852e-06
9.9986e-06
9.99866e-06
9.99874e-06
9.99883e-06
9.99896e-06
9.99906e-06
9.99912e-06
9.9991e-06
9.9991e-06
9.99907e-06
9.99912e-06
9.99925e-06
9.99951e-06
9.9999e-06
1.00004e-05
1.00009e-05
1.00015e-05
1.00022e-05
1.00029e-05
1.00035e-05
1.00036e-05
1.00026e-05
1.00003e-05
9.99604e-06
9.99074e-06
9.98455e-06
9.97988e-06
9.9779e-06
9.98074e-06
9.99029e-06
1.00064e-05
1.00299e-05
1.00586e-05
1.00922e-05
1.01226e-05
1.01486e-05
1.01638e-05
1.01664e-05
1.01534e-05
1.01241e-05
1.00764e-05
1.00127e-05
9.94544e-06
9.85924e-06
9.77175e-06
9.67129e-06
9.58429e-06
9.48372e-06
9.38178e-06
9.27964e-06
9.19916e-06
9.11641e-06
9.03399e-06
8.97533e-06
8.91351e-06
8.86784e-06
8.82595e-06
8.78985e-06
8.76733e-06
8.75681e-06
8.77051e-06
8.79862e-06
8.88973e-06
9.01251e-06
9.18739e-06
9.46633e-06
9.81336e-06
1.02249e-05
1.07209e-05
1.1377e-05
1.21058e-05
1.28749e-05
1.36983e-05
1.46986e-05
1.57363e-05
1.68047e-05
1.79422e-05
1.92771e-05
2.06828e-05
2.21629e-05
2.37432e-05
2.55725e-05
2.74933e-05
2.95019e-05
3.15875e-05
3.38968e-05
3.62243e-05
3.854e-05
4.08149e-05
4.32019e-05
4.54727e-05
4.7597e-05
4.9551e-05
5.14699e-05
5.3149e-05
5.45478e-05
5.56998e-05
5.67585e-05
5.75612e-05
5.80887e-05
5.84356e-05
5.87545e-05
5.89363e-05
5.89775e-05
5.89886e-05
5.90928e-05
5.91924e-05
5.92726e-05
5.94128e-05
5.97005e-05
6.00254e-05
6.03488e-05
6.0701e-05
6.11449e-05
6.15685e-05
6.19447e-05
6.23045e-05
6.27027e-05
6.30408e-05
6.32912e-05
6.34788e-05
6.36667e-05
6.37851e-05
6.38184e-05
6.38086e-05
6.37983e-05
6.3738e-05
6.36065e-05
6.34373e-05
6.32591e-05
6.30221e-05
6.27007e-05
6.23261e-05
6.19098e-05
6.14202e-05
6.08435e-05
6.02283e-05
5.95907e-05
5.89143e-05
5.81651e-05
5.73681e-05
5.65147e-05
5.56259e-05
5.47115e-05
5.38227e-05
5.2924e-05
5.19687e-05
5.08928e-05
4.97212e-05
4.84294e-05
4.70483e-05
4.55688e-05
4.40475e-05
4.24267e-05
4.06901e-05
3.87435e-05
3.66125e-05
3.42068e-05
3.15777e-05
2.87617e-05
2.59989e-05
2.35905e-05
2.16975e-05
2.08139e-05
2.11682e-05
2.29986e-05
2.60712e-05
2.95663e-05
3.31723e-05
3.58952e-05
3.65543e-05
3.36154e-05
2.72917e-05
2.35925e-05
3.16359e-05
4.60482e-05
5.64669e-05
6.35215e-05
6.94672e-05
7.27965e-05
7.41047e-05
7.43945e-05
7.42788e-05
7.37292e-05
7.27381e-05
7.15212e-05
7.02002e-05
6.90784e-05
6.81392e-05
6.74142e-05
6.68861e-05
6.66875e-05
6.67737e-05
6.70041e-05
6.73258e-05
6.76929e-05
6.81211e-05
6.85066e-05
6.88399e-05
6.90657e-05
6.92493e-05
6.93664e-05
6.93778e-05
6.93333e-05
6.92314e-05
6.91323e-05
6.90175e-05
6.88972e-05
6.8806e-05
6.87633e-05
6.86319e-05
6.86472e-05
6.86866e-05
6.86524e-05
6.87278e-05
6.86934e-05
6.86944e-05
6.86723e-05
6.86388e-05
6.86229e-05
6.86084e-05
6.86265e-05
6.86522e-05
6.86129e-05
6.86121e-05
6.85935e-05
6.85868e-05
6.85292e-05
6.85191e-05
6.84947e-05
6.84862e-05
6.845e-05
6.85079e-05
6.85058e-05
6.85075e-05
6.85717e-05
6.85803e-05
6.86178e-05
6.86511e-05
6.86361e-05
6.86949e-05
6.86797e-05
6.87208e-05
6.8724e-05
6.87516e-05
6.87623e-05
6.86857e-05
6.86886e-05
6.86264e-05
6.86099e-05
6.85986e-05
6.86277e-05
6.86127e-05
6.85969e-05
6.85817e-05
6.85842e-05
6.85915e-05
6.86562e-05
6.86977e-05
6.87186e-05
6.87546e-05
6.87883e-05
6.87849e-05
6.87845e-05
6.88022e-05
6.88072e-05
6.87802e-05
6.87539e-05
6.87409e-05
6.87104e-05
6.86373e-05
6.85626e-05
6.85106e-05
6.84718e-05
6.84311e-05
6.84396e-05
6.85186e-05
6.86362e-05
6.87496e-05
6.88842e-05
6.90322e-05
6.91222e-05
6.90991e-05
6.89974e-05
6.88311e-05
6.85989e-05
6.83241e-05
6.81042e-05
6.80044e-05
6.80501e-05
6.82306e-05
6.8573e-05
6.90325e-05
6.9453e-05
6.97075e-05
6.97773e-05
6.95829e-05
6.9021e-05
6.81588e-05
6.72764e-05
6.6638e-05
6.6471e-05
6.69446e-05
6.83116e-05
7.04771e-05
7.25951e-05
7.38754e-05
7.422e-05
7.29693e-05
6.77199e-05
5.58831e-05
3.87297e-05
2.60499e-05
2.35811e-05
2.55715e-05
2.73239e-05
2.79765e-05
2.87452e-05
2.87739e-05
2.74057e-05
2.5038e-05
2.29746e-05
2.17495e-05
2.11098e-05
2.08734e-05
2.12169e-05
2.20319e-05
2.29815e-05
2.38844e-05
2.4789e-05
2.58419e-05
2.69535e-05
2.8021e-05
2.90005e-05
3.00136e-05
3.10748e-05
3.22134e-05
3.33933e-05
3.46193e-05
3.58035e-05
3.69419e-05
3.80103e-05
3.90723e-05
4.00994e-05
4.1119e-05
4.21384e-05
4.32337e-05
4.43751e-05
4.55698e-05
4.67647e-05
4.79742e-05
4.91213e-05
5.01992e-05
5.11899e-05
5.21558e-05
5.3061e-05
5.39515e-05
5.48599e-05
5.575e-05
5.66035e-05
5.74252e-05
5.81391e-05
5.87737e-05
5.93848e-05
5.99215e-05
6.04232e-05
6.08736e-05
6.12254e-05
6.14591e-05
6.15389e-05
6.14533e-05
6.12296e-05
6.09012e-05
6.04388e-05
5.99056e-05
5.92548e-05
5.85612e-05
5.7733e-05
5.68803e-05
5.59141e-05
5.49431e-05
5.38201e-05
5.26465e-05
5.1329e-05
4.99949e-05
4.84764e-05
4.69633e-05
4.53294e-05
4.37796e-05
4.21573e-05
4.06886e-05
3.92855e-05
3.81063e-05
3.6993e-05
3.60467e-05
3.51461e-05
3.43756e-05
3.35555e-05
3.27716e-05
3.19459e-05
3.11982e-05
3.03874e-05
2.95826e-05
2.89379e-05
2.81404e-05
2.74353e-05
2.66635e-05
2.599e-05
2.51404e-05
2.43715e-05
2.35402e-05
2.27076e-05
2.18755e-05
2.10453e-05
2.02182e-05
1.92966e-05
1.8521e-05
1.76994e-05
1.68611e-05
1.60611e-05
1.52405e-05
1.44346e-05
1.36737e-05
1.28873e-05
1.21688e-05
1.15123e-05
1.09133e-05
1.038e-05
9.90707e-06
9.49842e-06
9.17901e-06
8.91882e-06
8.73331e-06
8.64019e-06
8.60841e-06
8.6309e-06
8.70642e-06
8.82364e-06
8.96472e-06
9.12474e-06
9.29536e-06
9.4539e-06
9.61037e-06
9.75392e-06
9.87766e-06
9.98839e-06
1.00725e-05
1.01414e-05
1.01917e-05
1.02209e-05
1.02361e-05
1.02384e-05
1.02297e-05
1.02107e-05
1.01863e-05
1.0157e-05
1.01267e-05
1.00955e-05
1.00665e-05
1.00411e-05
1.0019e-05
9.99993e-06
9.98565e-06
9.97573e-06
9.96929e-06
9.96588e-06
9.96553e-06
9.96757e-06
9.9713e-06
9.97641e-06
9.98218e-06
9.98809e-06
9.99361e-06
9.99845e-06
1.00019e-05
1.0004e-05
1.00045e-05
1.00036e-05
1.00017e-05
9.99931e-06
9.99694e-06
9.99507e-06
9.99413e-06
9.99419e-06
9.99499e-06
9.99624e-06
9.99765e-06
9.99903e-06
1.00001e-05
1.0001e-05
1.00017e-05
1.00024e-05
1.00029e-05
1.00031e-05
1.0003e-05
1.00025e-05
1.00015e-05
9.99991e-06
9.99804e-06
9.99614e-06
9.99451e-06
9.99347e-06
9.99335e-06
9.99431e-06
9.99615e-06
9.99859e-06
1.00011e-05
1.00033e-05
1.00048e-05
1.00052e-05
1.00049e-05
1.0004e-05
1.00028e-05
1.0002e-05
1.00016e-05
1.00019e-05
1.00026e-05
1.00034e-05
1.00041e-05
1.00044e-05
1.00041e-05
1.00033e-05
1.00022e-05
1.0001e-05
9.99973e-06
9.99863e-06
9.99782e-06
9.99731e-06
9.99706e-06
9.99709e-06
9.99742e-06
9.99806e-06
9.99884e-06
9.99974e-06
1.00007e-05
1.00015e-05
1.00021e-05
1.00024e-05
1.00023e-05
1.00017e-05
1.00008e-05
9.99954e-06
9.99816e-06
9.9968e-06
9.99557e-06
9.99454e-06
9.99389e-06
9.99371e-06
9.99396e-06
9.99465e-06
9.99575e-06
9.99718e-06
9.99869e-06
1.00001e-05
1.00012e-05
1.00019e-05
1.00019e-05
1.00015e-05
1.0001e-05
1.00004e-05
9.99984e-06
9.99931e-06
9.99881e-06
9.99842e-06
9.99808e-06
9.99786e-06
9.99767e-06
9.99747e-06
9.99715e-06
9.99674e-06
9.99617e-06
9.99567e-06
9.99535e-06
9.99552e-06
9.99633e-06
9.99774e-06
9.99959e-06
1.00014e-05
1.00029e-05
1.00037e-05
1.00035e-05
1.00023e-05
1.00002e-05
9.99778e-06
9.99519e-06
9.99316e-06
9.99182e-06
9.99151e-06
9.99209e-06
9.99333e-06
9.99501e-06
9.9968e-06
9.99865e-06
1.00003e-05
1.00016e-05
1.00025e-05
1.00029e-05
1.0003e-05
1.00026e-05
1.00021e-05
1.00013e-05
1.00004e-05
9.99959e-06
9.99887e-06
9.99844e-06
9.99832e-06
9.9984e-06
9.99857e-06
9.99873e-06
9.99882e-06
9.9988e-06
9.9988e-06
9.9989e-06
9.99923e-06
9.99965e-06
1e-05
1.00001e-05
9.9998e-06
9.99907e-06
9.99814e-06
9.99783e-06
9.99747e-06
9.99729e-06
9.99715e-06
9.99713e-06
9.99719e-06
9.99728e-06
9.9974e-06
9.9976e-06
9.99799e-06
9.99835e-06
9.99882e-06
9.9993e-06
9.99972e-06
1.00001e-05
1.00004e-05
1.00005e-05
1.00005e-05
1.00005e-05
1.00002e-05
9.99995e-06
9.99958e-06
9.99922e-06
9.99888e-06
9.99868e-06
9.99864e-06
9.99884e-06
9.99927e-06
9.99988e-06
1.00006e-05
1.00013e-05
1.00019e-05
1.00022e-05
1.00022e-05
1.00019e-05
1.00014e-05
1.00009e-05
1.00002e-05
9.99954e-06
9.99887e-06
9.99831e-06
9.99794e-06
9.99794e-06
9.99826e-06
9.99882e-06
9.99951e-06
1.00002e-05
1.00007e-05
1.0001e-05
1.0001e-05
1.00009e-05
1.00007e-05
1.00004e-05
1.00003e-05
1.00002e-05
1.00003e-05
1.00003e-05
1.00004e-05
1.00005e-05
1.00005e-05
1.00004e-05
1.00001e-05
9.9997e-06
9.99919e-06
9.99876e-06
9.99849e-06
9.9985e-06
9.99873e-06
9.99915e-06
9.9997e-06
1.00003e-05
1.00008e-05
1.00012e-05
1.00013e-05
1.00013e-05
1.00011e-05
1.0001e-05
1.00008e-05
1.00006e-05
1.00002e-05
9.9999e-06
9.9997e-06
9.99966e-06
9.99973e-06
9.99982e-06
9.99993e-06
1e-05
1.00001e-05
1e-05
1e-05
1e-05
9.99997e-06
9.99987e-06
9.99981e-06
9.99977e-06
9.99971e-06
9.99963e-06
9.99958e-06
9.99952e-06
9.99952e-06
9.99955e-06
9.99968e-06
9.99985e-06
1e-05
1.00001e-05
1.00003e-05
1.00004e-05
1.00003e-05
1.00002e-05
1e-05
9.99988e-06
9.99969e-06
9.99947e-06
9.99935e-06
9.99938e-06
9.99953e-06
9.99969e-06
9.99981e-06
9.99986e-06
9.99988e-06
9.99986e-06
9.9999e-06
9.99995e-06
1e-05
1e-05
1e-05
1e-05
9.99999e-06
9.99993e-06
9.99997e-06
1.00001e-05
1.00004e-05
1.00008e-05
1.00012e-05
1.00017e-05
1.00021e-05
1.00021e-05
1.00013e-05
9.99919e-06
9.99538e-06
9.99052e-06
9.985e-06
9.98135e-06
9.98208e-06
9.98936e-06
1.00066e-05
1.00313e-05
1.00663e-05
1.01013e-05
1.01382e-05
1.01607e-05
1.01626e-05
1.01366e-05
1.00733e-05
9.9803e-06
9.83816e-06
9.68134e-06
9.47431e-06
9.28377e-06
9.08822e-06
8.95255e-06
8.85042e-06
8.83535e-06
8.93234e-06
9.09797e-06
9.41149e-06
9.78211e-06
1.03963e-05
1.1028e-05
1.19739e-05
1.28846e-05
1.41495e-05
1.53306e-05
1.69472e-05
1.83086e-05
1.97059e-05
2.12176e-05
2.28501e-05
2.4415e-05
2.59984e-05
2.75912e-05
2.92467e-05
3.09334e-05
3.25164e-05
3.42173e-05
3.60078e-05
3.78091e-05
3.95097e-05
4.13131e-05
4.34965e-05
4.53616e-05
4.71567e-05
4.88022e-05
5.06916e-05
5.25542e-05
5.42654e-05
5.6034e-05
5.77537e-05
5.94094e-05
6.08501e-05
6.22984e-05
6.37632e-05
6.50728e-05
6.64944e-05
6.7705e-05
6.90889e-05
7.04398e-05
7.16204e-05
7.27849e-05
7.39423e-05
7.48846e-05
7.58835e-05
7.66126e-05
7.74909e-05
7.8309e-05
7.89836e-05
7.9688e-05
8.04401e-05
8.10149e-05
8.16625e-05
8.20699e-05
8.25922e-05
8.30673e-05
8.34217e-05
8.38075e-05
8.42956e-05
8.47606e-05
8.51048e-05
8.51317e-05
8.60845e-05
8.64955e-05
8.67796e-05
8.70197e-05
8.72619e-05
8.74229e-05
8.74938e-05
8.75732e-05
8.77247e-05
8.78729e-05
8.79798e-05
8.80977e-05
8.82366e-05
8.82645e-05
8.81262e-05
8.78304e-05
8.74211e-05
8.68104e-05
8.60426e-05
8.51368e-05
8.41725e-05
8.31049e-05
8.20347e-05
8.09794e-05
8.00778e-05
7.93252e-05
7.87651e-05
7.82667e-05
7.77522e-05
7.70929e-05
7.62523e-05
7.51643e-05
7.39758e-05
7.27218e-05
7.15319e-05
7.01088e-05
6.85406e-05
6.69362e-05
6.56252e-05
6.46232e-05
6.39228e-05
6.32201e-05
6.221e-05
6.11132e-05
6.01674e-05
5.91823e-05
5.81785e-05
5.73867e-05
5.6777e-05
5.65062e-05
5.67419e-05
5.72266e-05
5.777e-05
5.85603e-05
5.91103e-05
5.96268e-05
6.02084e-05
6.09332e-05
6.15685e-05
6.23335e-05
6.30232e-05
6.37943e-05
6.47562e-05
6.61709e-05
6.76468e-05
6.97219e-05
7.21893e-05
7.52339e-05
7.87682e-05
8.28442e-05
8.68739e-05
9.20712e-05
9.6917e-05
0.000102701
0.000107634
0.000111709
0.00011409
0.000114619
0.000112027
0.000108707
0.000104913
9.98437e-05
9.56551e-05
8.91288e-05
8.23535e-05
8.21455e-05
9.55028e-05
0.000134899
0.000215956
0.000269832
0.000324273
0.000329777
0.000338581
0.000336076
0.000340984
0.000372695
0.000354557
0.000397899
0.00034299
0.000353601
0.000385996
0.000348973
0.000338773
0.000338336
0.00035926
0.000338079
0.00032764
0.000330305
0.000336172
0.000364664
0.00037228
0.000345024
0.000341469
0.000339078
0.000338234
0.000333584
0.000326191
0.000337197
0.000338624
0.000332828
0.000324739
0.000343915
0.000343093
0.000336815
0.000342663
0.000388114
0.000347414
0.000347697
0.000359165
0.000351843
0.000329397
0.000355751
0.000343097
0.000371204
0.000357909
0.00034548
0.000344347
0.000348828
0.000334818
0.000341398
0.000326497
0.000336508
0.000360158
0.000339814
0.000365936
0.000335323
0.000323239
0.000329353
0.000317707
0.000351041
0.000350856
0.000355672
0.000363083
0.000348624
0.000337844
0.000339323
0.000351388
0.000363038
0.000340918
0.000336893
0.000337091
0.000369144