/*--------------------------------*- C++ -*----------------------------------*\
| =========                 |                                                 |
| \\      /  F ield         | foam-extend: Open Source CFD                    |
|  \\    /   O peration     | Version:     4.0                                |
|   \\  /    A nd           | Web:         http://www.foam-extend.org         |
|    \\/     M anipulation  |                                                 |
\*---------------------------------------------------------------------------*/
FoamFile
{
    version     2.0;
    format      ascii;
    class       volScalarField;
    location    "0.016";
    object      h;
}
// * * * * * * * * * * * * * * * * * * * * * * * * * * * * * * * * * * * * * //

dimensions      [0 1 0 0 0 0 0];

internalField   nonuniform List<scalar> 
176451
(
1.00047e-05
9.99617e-06
9.99502e-06
9.99874e-06
1.00024e-05
1.00038e-05
9.99627e-06
9.99996e-06
1.00005e-05
1.00013e-05
1.00038e-05
1.00064e-05
1.00012e-05
9.99853e-06
9.9975e-06
9.99823e-06
9.99987e-06
1.00001e-05
1.0005e-05
9.99996e-06
1.00008e-05
1.00013e-05
9.99939e-06
1.00024e-05
1.00026e-05
1.00031e-05
1.00005e-05
9.99847e-06
9.99827e-06
1.00004e-05
9.99894e-06
1.00026e-05
1.00001e-05
9.99616e-06
9.99767e-06
1.00034e-05
1.00038e-05
1.00031e-05
9.999e-06
9.99659e-06
9.99946e-06
1.00024e-05
9.99831e-06
9.99934e-06
1.00021e-05
1.00008e-05
9.99968e-06
1.00008e-05
1.00023e-05
1.00047e-05
1.00043e-05
9.99967e-06
9.9977e-06
9.99727e-06
1.00006e-05
1.0002e-05
1.00011e-05
1e-05
9.99685e-06
1.00043e-05
1.00025e-05
9.99713e-06
9.99453e-06
1.00001e-05
1.00005e-05
1.00027e-05
1.00017e-05
1.0002e-05
1.00024e-05
9.99705e-06
1e-05
1.00014e-05
9.99934e-06
1.00042e-05
1.00029e-05
1.00007e-05
9.99917e-06
1.00017e-05
9.99787e-06
9.99417e-06
9.99961e-06
1.00053e-05
9.99782e-06
9.99586e-06
9.99964e-06
9.99935e-06
9.99971e-06
1.0001e-05
9.9992e-06
1.00012e-05
1.00003e-05
1.00011e-05
1.00017e-05
9.9999e-06
9.99882e-06
9.99512e-06
9.99675e-06
1.00007e-05
1.00047e-05
1.00007e-05
9.99921e-06
9.99959e-06
1.0003e-05
9.99948e-06
1.00016e-05
9.99901e-06
1.00004e-05
1.00014e-05
1.00035e-05
1.00028e-05
1.0003e-05
1.00014e-05
1.0002e-05
1e-05
1.00028e-05
1.00044e-05
1.0002e-05
1e-05
1.00038e-05
1.00012e-05
1.00006e-05
9.99596e-06
9.99583e-06
9.99911e-06
1.00022e-05
1.00003e-05
1.00006e-05
1e-05
1.00003e-05
1.0002e-05
1.00025e-05
1.00036e-05
1.00002e-05
1.00025e-05
9.99896e-06
9.99888e-06
1.00043e-05
9.99738e-06
1.00001e-05
1.00003e-05
9.99931e-06
9.99828e-06
1.00072e-05
1.00024e-05
9.99791e-06
9.99913e-06
1.00027e-05
1.00052e-05
9.99762e-06
1.00017e-05
1.0006e-05
9.99968e-06
9.99893e-06
9.99919e-06
9.99772e-06
1.00005e-05
1.00013e-05
9.99996e-06
1.00013e-05
1.0002e-05
1.00001e-05
1.00007e-05
9.99546e-06
9.99802e-06
9.99932e-06
1.00012e-05
1.00016e-05
9.99956e-06
9.99861e-06
1.00017e-05
9.99554e-06
9.99931e-06
1.00045e-05
1.0001e-05
9.99768e-06
9.99987e-06
1.00026e-05
9.99581e-06
9.99985e-06
1.00024e-05
1.00013e-05
1.00005e-05
9.99506e-06
1.0001e-05
9.99816e-06
9.99958e-06
1.00004e-05
1.00042e-05
1.00077e-05
1.00036e-05
1.00073e-05
1.00018e-05
9.99618e-06
9.99121e-06
9.9877e-06
9.98628e-06
9.98687e-06
9.98888e-06
9.99167e-06
9.99446e-06
9.99682e-06
9.99841e-06
9.99931e-06
9.99966e-06
9.99968e-06
9.99951e-06
9.9993e-06
9.99909e-06
9.99884e-06
9.99841e-06
9.9978e-06
9.99711e-06
9.99645e-06
9.99596e-06
9.99588e-06
9.99635e-06
9.99743e-06
9.99894e-06
1.00007e-05
1.00026e-05
1.00044e-05
1.00057e-05
1.00067e-05
1.00074e-05
1.00079e-05
1.00083e-05
1.00088e-05
1.00093e-05
1.00095e-05
1.00094e-05
1.00087e-05
1.00076e-05
1.00062e-05
1.00049e-05
1.00038e-05
1.00032e-05
1.00029e-05
1.00028e-05
1.00028e-05
1.00026e-05
1.00021e-05
1.00014e-05
1.00006e-05
9.99991e-06
9.99941e-06
9.99898e-06
9.99872e-06
9.99843e-06
9.99808e-06
9.99773e-06
9.99755e-06
9.9975e-06
9.99774e-06
9.99819e-06
9.99879e-06
9.99931e-06
9.99955e-06
9.99937e-06
9.99887e-06
9.99813e-06
9.99734e-06
9.99671e-06
9.99651e-06
9.99679e-06
9.99751e-06
9.99861e-06
9.99986e-06
1.00011e-05
1.00019e-05
1.00025e-05
1.00027e-05
1.00028e-05
1.00028e-05
1.0003e-05
1.00034e-05
1.00037e-05
1.00036e-05
1.0003e-05
1.00019e-05
1.00002e-05
9.99833e-06
9.99642e-06
9.99489e-06
9.99373e-06
9.99295e-06
9.9925e-06
9.99237e-06
9.99235e-06
9.99232e-06
9.99226e-06
9.99224e-06
9.99222e-06
9.99224e-06
9.99235e-06
9.99266e-06
9.99308e-06
9.99358e-06
9.99423e-06
9.99501e-06
9.99576e-06
9.99635e-06
9.99672e-06
9.99685e-06
9.99672e-06
9.99653e-06
9.99655e-06
9.99707e-06
9.99819e-06
9.99984e-06
1.00019e-05
1.00039e-05
1.00054e-05
1.00059e-05
1.00054e-05
1.00042e-05
1.00026e-05
1.0001e-05
9.99986e-06
9.99948e-06
9.99969e-06
1.00003e-05
1.00011e-05
1.0002e-05
1.00028e-05
1.00034e-05
1.00041e-05
1.00047e-05
1.00052e-05
1.00055e-05
1.00057e-05
1.00059e-05
1.00059e-05
1.0006e-05
1.0006e-05
1.00062e-05
1.00065e-05
1.00068e-05
1.0007e-05
1.0007e-05
1.00066e-05
1.00059e-05
1.00049e-05
1.00035e-05
1.00019e-05
1.00002e-05
9.99834e-06
9.99643e-06
9.99454e-06
9.99288e-06
9.99156e-06
9.9907e-06
9.99045e-06
9.99088e-06
9.992e-06
9.99375e-06
9.99611e-06
9.99892e-06
1.0002e-05
1.00048e-05
1.00068e-05
1.00077e-05
1.00073e-05
1.00057e-05
1.00034e-05
1.0001e-05
9.99891e-06
9.99752e-06
9.99696e-06
9.99713e-06
9.9978e-06
9.99861e-06
9.99934e-06
9.99984e-06
1.00001e-05
1.00001e-05
9.99997e-06
1e-05
1.00003e-05
1.00007e-05
1.00014e-05
1.00021e-05
1.00029e-05
1.00035e-05
1.00039e-05
1.00042e-05
1.00042e-05
1.00039e-05
1.00033e-05
1.00026e-05
1.00017e-05
1.00008e-05
9.99992e-06
9.99906e-06
9.99821e-06
9.99732e-06
9.99646e-06
9.99573e-06
9.99516e-06
9.99471e-06
9.99443e-06
9.99433e-06
9.9944e-06
9.9946e-06
9.99497e-06
9.99548e-06
9.99601e-06
9.99636e-06
9.99642e-06
9.99617e-06
9.99567e-06
9.99503e-06
9.99451e-06
9.99433e-06
9.99458e-06
9.99525e-06
9.99635e-06
9.9978e-06
9.99954e-06
1.00013e-05
1.00029e-05
1.00041e-05
1.00048e-05
1.00048e-05
1.00044e-05
1.00037e-05
1.0003e-05
1.00025e-05
1.00025e-05
1.0003e-05
1.00039e-05
1.0005e-05
1.00063e-05
1.00074e-05
1.00081e-05
1.00084e-05
1.0008e-05
1.00072e-05
1.0006e-05
1.00043e-05
1.00028e-05
1.00015e-05
1.00006e-05
1.00001e-05
9.99996e-06
9.99996e-06
9.99994e-06
9.99971e-06
9.99943e-06
9.99909e-06
9.99862e-06
9.9978e-06
9.99665e-06
9.99496e-06
9.99282e-06
9.99017e-06
9.98766e-06
9.98561e-06
9.98445e-06
9.98424e-06
9.98525e-06
9.98743e-06
9.99048e-06
9.99434e-06
9.99826e-06
1.00021e-05
1.00052e-05
1.00077e-05
1.00091e-05
1.00097e-05
1.00098e-05
1.00096e-05
1.00093e-05
1.00094e-05
1.00096e-05
1.001e-05
1.00105e-05
1.0011e-05
1.00113e-05
1.00114e-05
1.00111e-05
1.00106e-05
1.00097e-05
1.00086e-05
1.00072e-05
1.00055e-05
1.00035e-05
1.00013e-05
9.99926e-06
9.99745e-06
9.99615e-06
9.9954e-06
9.99537e-06
9.99584e-06
9.99655e-06
9.99728e-06
9.99792e-06
9.99849e-06
9.99899e-06
9.99961e-06
1.00005e-05
1.00018e-05
1.00033e-05
1.00051e-05
1.00068e-05
1.00083e-05
1.00092e-05
1.00094e-05
1.0009e-05
1.0008e-05
1.00065e-05
1.00046e-05
1.00028e-05
1.0001e-05
9.99939e-06
9.99775e-06
9.99649e-06
9.99559e-06
9.99511e-06
9.99511e-06
9.99569e-06
9.9968e-06
9.99821e-06
9.99974e-06
1.00011e-05
1.00022e-05
1.00028e-05
1.00029e-05
1.00024e-05
1.00013e-05
9.99982e-06
9.9982e-06
9.99679e-06
9.99583e-06
9.99553e-06
9.99582e-06
9.99648e-06
9.99733e-06
9.99816e-06
9.99884e-06
9.99926e-06
9.99942e-06
9.99938e-06
9.99914e-06
9.99872e-06
9.99826e-06
9.99799e-06
9.99806e-06
9.99848e-06
9.99925e-06
1.00001e-05
1.00008e-05
1.0001e-05
1.00005e-05
9.99953e-06
9.99822e-06
9.99692e-06
9.99594e-06
9.9955e-06
9.99564e-06
9.99628e-06
9.99742e-06
9.99901e-06
1.00011e-05
1.00034e-05
1.0006e-05
1.00083e-05
1.001e-05
1.00108e-05
1.00105e-05
1.00092e-05
1.00071e-05
1.00047e-05
1.00022e-05
1e-05
9.998e-06
9.99613e-06
9.99435e-06
9.99277e-06
9.99138e-06
9.99027e-06
9.98949e-06
9.98909e-06
9.98903e-06
9.98922e-06
9.98969e-06
9.99041e-06
9.99132e-06
9.99223e-06
9.99306e-06
9.99367e-06
9.99403e-06
9.99411e-06
9.99404e-06
9.99399e-06
9.99408e-06
9.99434e-06
9.99487e-06
9.99571e-06
9.99691e-06
9.9984e-06
1.00002e-05
1.00023e-05
1.00045e-05
1.00066e-05
1.00085e-05
1.001e-05
1.0011e-05
1.00116e-05
1.00118e-05
1.00119e-05
1.0012e-05
1.0012e-05
1.00118e-05
1.00115e-05
1.00107e-05
1.00095e-05
1.00078e-05
1.00059e-05
1.0004e-05
1.00023e-05
1.00011e-05
1.00008e-05
1.00013e-05
1.00024e-05
1.00041e-05
1.00058e-05
1.00073e-05
1.00083e-05
1.00084e-05
1.00077e-05
1.00062e-05
1.00041e-05
1.00018e-05
9.99976e-06
9.9983e-06
9.99748e-06
9.99753e-06
9.99822e-06
9.99922e-06
1.00001e-05
1.00004e-05
1e-05
9.99895e-06
9.99739e-06
9.9961e-06
9.99548e-06
9.99603e-06
9.99767e-06
1e-05
1.00026e-05
1.00048e-05
1.00062e-05
1.00067e-05
1.00063e-05
1.00054e-05
1.0004e-05
1.00023e-05
1.00003e-05
9.99806e-06
9.99535e-06
9.99278e-06
9.99055e-06
9.98922e-06
9.98904e-06
9.9903e-06
9.99306e-06
9.99677e-06
1.00012e-05
1.00054e-05
1.0009e-05
1.00114e-05
1.00125e-05
1.00122e-05
1.00108e-05
1.00089e-05
1.00068e-05
1.00051e-05
1.00039e-05
1.00033e-05
1.0003e-05
1.0003e-05
1.00031e-05
1.00034e-05
1.00037e-05
1.00043e-05
1.00052e-05
1.00061e-05
1.00071e-05
1.00079e-05
1.00086e-05
1.00088e-05
1.00085e-05
1.00079e-05
1.00068e-05
1.00053e-05
1.00031e-05
1.00004e-05
9.99741e-06
9.99438e-06
9.99158e-06
9.98948e-06
9.98831e-06
9.98803e-06
9.98839e-06
9.98912e-06
9.98988e-06
9.99039e-06
9.99062e-06
9.99064e-06
9.99057e-06
9.99067e-06
9.99103e-06
9.99181e-06
9.99311e-06
9.99496e-06
9.99757e-06
1.00009e-05
1.00048e-05
1.00089e-05
1.00128e-05
1.00158e-05
1.00172e-05
1.00169e-05
1.00149e-05
1.00118e-05
1.00079e-05
1.00044e-05
1.00013e-05
9.9991e-06
9.99756e-06
9.99646e-06
9.99533e-06
9.99384e-06
9.99194e-06
9.98988e-06
9.98794e-06
9.98649e-06
9.98584e-06
9.98617e-06
9.98744e-06
9.98934e-06
9.99163e-06
9.99394e-06
9.99606e-06
9.99776e-06
9.9991e-06
1.00002e-05
1.00012e-05
1.00023e-05
1.00037e-05
1.00055e-05
1.00078e-05
1.00105e-05
1.00134e-05
1.00163e-05
1.00189e-05
1.00207e-05
1.00215e-05
1.00214e-05
1.00206e-05
1.00191e-05
1.00176e-05
1.00162e-05
1.0015e-05
1.00137e-05
1.00118e-05
1.00091e-05
1.00051e-05
9.9997e-06
9.99315e-06
9.98643e-06
9.9802e-06
9.97547e-06
9.97298e-06
9.97321e-06
9.97603e-06
9.98071e-06
9.98638e-06
9.99183e-06
9.99636e-06
9.99928e-06
1.00006e-05
1.00006e-05
9.99987e-06
9.99881e-06
9.99784e-06
9.9972e-06
9.9968e-06
9.99643e-06
9.99596e-06
9.99539e-06
9.99484e-06
9.99454e-06
9.9948e-06
9.9958e-06
9.99749e-06
9.99946e-06
1.00013e-05
1.00026e-05
1.0003e-05
1.00025e-05
1.00013e-05
1e-05
9.99878e-06
9.99791e-06
9.99749e-06
9.99749e-06
9.99777e-06
9.99808e-06
9.99827e-06
9.99821e-06
9.9978e-06
9.99695e-06
9.99576e-06
9.99443e-06
9.99311e-06
9.992e-06
9.99126e-06
9.99099e-06
9.99116e-06
9.99165e-06
9.99247e-06
9.99349e-06
9.99463e-06
9.99599e-06
9.99762e-06
9.99959e-06
1.00018e-05
1.00041e-05
1.00062e-05
1.00079e-05
1.00086e-05
1.00082e-05
1.00066e-05
1.00038e-05
1.00005e-05
9.99675e-06
9.99357e-06
9.99126e-06
9.99022e-06
9.99035e-06
9.99161e-06
9.9937e-06
9.99602e-06
9.99823e-06
9.99978e-06
1.00006e-05
1.00006e-05
1e-05
9.99928e-06
9.99862e-06
9.99838e-06
9.99858e-06
9.99925e-06
1.00003e-05
1.00015e-05
1.00026e-05
1.00034e-05
1.0004e-05
1.00043e-05
1.00041e-05
1.00039e-05
1.00036e-05
1.00035e-05
1.00034e-05
1.00035e-05
1.00037e-05
1.00041e-05
1.00045e-05
1.00048e-05
1.00047e-05
1.00042e-05
1.00031e-05
1.00015e-05
9.99941e-06
9.9971e-06
9.99478e-06
9.9927e-06
9.99115e-06
9.99019e-06
9.98988e-06
9.99032e-06
9.9914e-06
9.99295e-06
9.99479e-06
9.99663e-06
9.99833e-06
9.99965e-06
1.00006e-05
1.00011e-05
1.00013e-05
1.00011e-05
1.00007e-05
1e-05
9.99934e-06
9.99861e-06
9.99785e-06
9.9971e-06
9.99636e-06
9.9956e-06
9.99473e-06
9.99388e-06
9.99311e-06
9.99252e-06
9.99239e-06
9.99291e-06
9.99422e-06
9.99623e-06
9.99884e-06
1.00016e-05
1.00043e-05
1.00064e-05
1.00079e-05
1.00085e-05
1.00085e-05
1.0008e-05
1.00074e-05
1.00069e-05
1.00066e-05
1.00063e-05
1.0006e-05
1.00055e-05
1.00046e-05
1.00032e-05
1.00016e-05
9.99978e-06
9.99807e-06
9.99677e-06
9.99594e-06
9.99556e-06
9.9956e-06
9.99596e-06
9.99647e-06
9.99693e-06
9.99726e-06
9.9974e-06
9.99727e-06
9.99674e-06
9.99583e-06
9.99468e-06
9.99342e-06
9.99223e-06
9.99133e-06
9.99098e-06
9.99134e-06
9.99241e-06
9.99419e-06
9.99645e-06
9.99896e-06
1.00012e-05
1.00029e-05
1.00038e-05
1.0004e-05
1.00034e-05
1.00025e-05
1.00017e-05
1.00014e-05
1.00016e-05
1.00025e-05
1.00037e-05
1.0005e-05
1.0006e-05
1.00066e-05
1.00068e-05
1.00066e-05
1.00061e-05
1.00055e-05
1.00049e-05
1.00042e-05
1.00034e-05
1.00024e-05
1.00012e-05
9.99969e-06
9.99786e-06
9.99581e-06
9.99386e-06
9.99222e-06
9.99114e-06
9.99078e-06
9.99122e-06
9.99235e-06
9.99379e-06
9.99529e-06
9.99659e-06
9.99759e-06
9.99823e-06
9.99868e-06
9.99914e-06
9.99977e-06
1.00005e-05
1.00014e-05
1.00022e-05
1.00027e-05
1.00029e-05
1.00027e-05
1.00022e-05
1.00015e-05
1.00008e-05
1.00001e-05
9.99958e-06
9.99916e-06
9.99876e-06
9.99837e-06
9.99808e-06
9.99797e-06
9.99813e-06
9.99872e-06
9.99981e-06
1.00014e-05
1.00032e-05
1.00051e-05
1.00068e-05
1.00081e-05
1.00088e-05
1.00086e-05
1.00077e-05
1.00062e-05
1.00041e-05
1.00019e-05
9.99995e-06
9.99843e-06
9.99754e-06
9.99758e-06
9.99842e-06
9.99979e-06
1.00014e-05
1.00026e-05
1.00031e-05
1.00028e-05
1.00014e-05
9.99933e-06
9.99688e-06
9.99463e-06
9.99276e-06
9.99184e-06
9.99184e-06
9.99263e-06
9.99395e-06
9.9954e-06
9.99677e-06
9.99786e-06
9.99862e-06
9.9991e-06
9.99941e-06
9.99967e-06
9.99996e-06
1.00003e-05
1.00008e-05
1.00012e-05
1.00014e-05
1.00013e-05
1.00008e-05
9.99984e-06
9.99842e-06
9.99682e-06
9.99507e-06
9.99354e-06
9.99233e-06
9.99191e-06
9.99228e-06
9.99342e-06
9.99518e-06
9.99715e-06
9.99902e-06
1.00003e-05
1.00008e-05
1.00006e-05
9.99963e-06
9.99851e-06
9.99751e-06
9.99723e-06
9.99785e-06
9.99944e-06
1.00019e-05
1.00046e-05
1.00073e-05
1.00093e-05
1.00105e-05
1.00106e-05
1.00097e-05
1.0008e-05
1.00057e-05
1.00034e-05
1.00011e-05
9.99923e-06
9.99775e-06
9.99697e-06
9.99674e-06
9.99709e-06
9.9979e-06
9.99899e-06
1.00002e-05
1.00015e-05
1.00026e-05
1.00035e-05
1.00042e-05
1.00047e-05
1.00051e-05
1.00054e-05
1.00055e-05
1.00054e-05
1.00049e-05
1.0004e-05
1.00025e-05
1.00006e-05
9.99844e-06
9.99632e-06
9.99435e-06
9.99291e-06
9.99205e-06
9.99205e-06
9.99284e-06
9.99426e-06
9.99619e-06
9.99826e-06
1.00002e-05
1.00018e-05
1.00027e-05
1.0003e-05
1.00028e-05
1.00023e-05
1.00017e-05
1.0001e-05
1.00006e-05
1.00005e-05
1.00006e-05
1.00008e-05
1.0001e-05
1.0001e-05
1.00009e-05
1.00006e-05
1.00002e-05
9.99972e-06
9.99937e-06
9.9992e-06
9.99933e-06
9.99984e-06
1.00007e-05
1.00017e-05
1.00026e-05
1.00032e-05
1.00032e-05
1.00025e-05
1.0001e-05
9.99905e-06
9.99673e-06
9.99445e-06
9.99254e-06
9.99137e-06
9.99106e-06
9.99157e-06
9.99282e-06
9.99454e-06
9.99651e-06
9.99834e-06
9.99987e-06
1.0001e-05
1.00017e-05
1.0002e-05
1.00021e-05
1.0002e-05
1.0002e-05
1.00018e-05
1.00014e-05
1.00008e-05
9.99976e-06
9.99835e-06
9.99664e-06
9.99494e-06
9.99354e-06
9.99274e-06
9.99285e-06
9.99404e-06
9.99631e-06
9.99936e-06
1.00029e-05
1.00063e-05
1.00093e-05
1.00113e-05
1.00121e-05
1.00116e-05
1.00101e-05
1.00077e-05
1.00049e-05
1.00022e-05
9.99972e-06
9.99782e-06
9.9966e-06
9.9961e-06
9.9962e-06
9.99667e-06
9.99743e-06
9.99836e-06
9.99932e-06
1e-05
1.00004e-05
1.00003e-05
9.99991e-06
9.99914e-06
9.99826e-06
9.99758e-06
9.99725e-06
9.99728e-06
9.99767e-06
9.99829e-06
9.99896e-06
9.99944e-06
9.99964e-06
9.9996e-06
9.99934e-06
9.99886e-06
9.99827e-06
9.99774e-06
9.99739e-06
9.99728e-06
9.99745e-06
9.99793e-06
9.99872e-06
9.99972e-06
1.00008e-05
1.00019e-05
1.00028e-05
1.00036e-05
1.0004e-05
1.00042e-05
1.0004e-05
1.00036e-05
1.00031e-05
1.00025e-05
1.00022e-05
1.0002e-05
1.0002e-05
1.00023e-05
1.00028e-05
1.00034e-05
1.00039e-05
1.00043e-05
1.00045e-05
1.00044e-05
1.00039e-05
1.00032e-05
1.00022e-05
1.0001e-05
9.99984e-06
9.99867e-06
9.99778e-06
9.99711e-06
9.99685e-06
9.99693e-06
9.99729e-06
9.99776e-06
9.99823e-06
9.99863e-06
9.99886e-06
9.9988e-06
9.99849e-06
9.99792e-06
9.99731e-06
9.99661e-06
9.99605e-06
9.99565e-06
9.99563e-06
9.99602e-06
9.9968e-06
9.99788e-06
9.99911e-06
1.00004e-05
1.00014e-05
1.00021e-05
1.00025e-05
1.00023e-05
1.00018e-05
1.00008e-05
9.99962e-06
9.99823e-06
9.997e-06
9.99589e-06
9.9952e-06
9.99484e-06
9.99494e-06
9.99541e-06
9.99619e-06
9.99718e-06
9.99825e-06
9.99933e-06
1.00003e-05
1.0001e-05
1.00015e-05
1.00018e-05
1.00019e-05
1.00018e-05
1.00018e-05
1.00018e-05
1.00019e-05
1.00019e-05
1.00019e-05
1.00018e-05
1.00015e-05
1.00008e-05
9.99999e-06
9.99911e-06
9.99831e-06
9.99763e-06
9.99731e-06
9.99734e-06
9.99774e-06
9.99844e-06
9.99934e-06
1.00003e-05
1.00012e-05
1.0002e-05
1.00026e-05
1.00029e-05
1.0003e-05
1.00029e-05
1.00025e-05
1.0002e-05
1.00015e-05
1.0001e-05
1.00005e-05
1.00002e-05
1e-05
9.99988e-06
9.99972e-06
9.99948e-06
9.99922e-06
9.99899e-06
9.99884e-06
9.99888e-06
9.99917e-06
9.99973e-06
1.00004e-05
1.00011e-05
1.00017e-05
1.00022e-05
1.00023e-05
1.00021e-05
1.00016e-05
1.00009e-05
1e-05
9.99918e-06
9.99846e-06
9.99794e-06
9.99764e-06
9.9976e-06
9.99786e-06
9.99836e-06
9.99897e-06
9.99964e-06
1.00003e-05
1.00009e-05
1.00013e-05
1.00015e-05
1.00015e-05
1.00014e-05
1.00012e-05
1.00007e-05
1.00002e-05
9.99964e-06
9.9991e-06
9.99865e-06
9.99841e-06
9.99839e-06
9.99852e-06
9.99881e-06
9.9992e-06
9.99959e-06
9.99985e-06
9.99993e-06
9.99983e-06
9.99955e-06
9.99909e-06
9.99857e-06
9.99817e-06
9.99796e-06
9.99791e-06
9.9981e-06
9.99855e-06
9.99926e-06
1.00001e-05
1.00009e-05
1.00017e-05
1.00023e-05
1.00025e-05
1.00024e-05
1.00021e-05
1.00015e-05
1.00008e-05
1.00001e-05
9.99952e-06
9.99907e-06
9.99869e-06
9.99837e-06
9.99813e-06
9.99792e-06
9.99768e-06
9.99747e-06
9.99735e-06
9.9974e-06
9.99759e-06
9.99797e-06
9.99853e-06
9.99924e-06
9.99993e-06
1.00005e-05
1.0001e-05
1.00013e-05
1.00014e-05
1.00014e-05
1.00012e-05
1.00011e-05
1.00008e-05
1.00006e-05
1.00005e-05
1.00004e-05
1.00004e-05
1.00003e-05
1.00003e-05
1.00003e-05
1.00003e-05
1.00004e-05
1.00004e-05
1.00004e-05
1.00004e-05
1.00003e-05
1.00002e-05
1.00002e-05
1.00002e-05
1.00003e-05
1.00004e-05
1.00006e-05
1.00008e-05
1.0001e-05
1.00011e-05
1.00011e-05
1.00009e-05
1.00005e-05
1.00001e-05
9.99981e-06
9.99948e-06
9.99924e-06
9.99904e-06
9.99897e-06
9.99893e-06
9.99894e-06
9.99898e-06
9.99909e-06
9.99917e-06
9.99928e-06
9.99938e-06
9.99951e-06
9.99959e-06
9.99963e-06
9.99957e-06
9.99952e-06
9.99943e-06
9.99943e-06
9.9995e-06
9.99973e-06
1.00001e-05
1.00006e-05
1.0001e-05
1.00013e-05
1.00013e-05
1.00012e-05
1.00008e-05
1.00004e-05
9.99995e-06
9.99964e-06
9.99962e-06
1e-05
1.00008e-05
1.00016e-05
1.00021e-05
1.00019e-05
1.00001e-05
9.99683e-06
9.99179e-06
9.98591e-06
9.97973e-06
9.97567e-06
9.97511e-06
9.97988e-06
9.99096e-06
1.00072e-05
1.00288e-05
1.00547e-05
1.00836e-05
1.01094e-05
1.01347e-05
1.01543e-05
1.0168e-05
1.01739e-05
1.01691e-05
1.01517e-05
1.01228e-05
1.00892e-05
1.00392e-05
9.97329e-06
9.91072e-06
9.83178e-06
9.75246e-06
9.66849e-06
9.58281e-06
9.48123e-06
9.39207e-06
9.29081e-06
9.20221e-06
9.09339e-06
8.99908e-06
8.90828e-06
8.81166e-06
8.72187e-06
8.64516e-06
8.58211e-06
8.54555e-06
8.54661e-06
8.59284e-06
8.69649e-06
8.90533e-06
9.19956e-06
9.58444e-06
1.0082e-05
1.07767e-05
1.15915e-05
1.25214e-05
1.35827e-05
1.48795e-05
1.62776e-05
1.77619e-05
1.93281e-05
2.10929e-05
2.28908e-05
2.47037e-05
2.6523e-05
2.84814e-05
3.03932e-05
3.22393e-05
3.40034e-05
3.58025e-05
3.74561e-05
3.8929e-05
4.02325e-05
4.15001e-05
4.258e-05
4.34611e-05
4.42103e-05
4.49791e-05
4.56594e-05
4.62546e-05
4.68441e-05
4.75612e-05
4.82859e-05
4.89962e-05
4.97357e-05
5.06055e-05
5.14682e-05
5.22928e-05
5.31056e-05
5.40036e-05
5.48598e-05
5.5657e-05
5.6426e-05
5.72489e-05
5.80046e-05
5.86682e-05
5.92594e-05
5.98659e-05
6.03905e-05
6.08185e-05
6.11873e-05
6.15574e-05
6.18526e-05
6.20497e-05
6.21804e-05
6.22969e-05
6.23373e-05
6.22838e-05
6.21704e-05
6.20281e-05
6.18057e-05
6.14866e-05
6.11094e-05
6.07005e-05
6.02295e-05
5.96798e-05
5.90991e-05
5.84922e-05
5.78361e-05
5.70992e-05
5.63134e-05
5.54759e-05
5.45832e-05
5.3625e-05
5.26546e-05
5.16561e-05
5.06197e-05
4.94929e-05
4.82994e-05
4.70196e-05
4.56871e-05
4.42882e-05
4.28765e-05
4.13831e-05
3.9777e-05
3.79454e-05
3.58656e-05
3.34981e-05
3.07449e-05
2.79129e-05
2.5034e-05
2.25794e-05
2.06371e-05
1.98474e-05
2.05405e-05
2.28063e-05
2.63132e-05
3.01708e-05
3.42369e-05
3.69571e-05
3.65934e-05
3.198e-05
2.5214e-05
2.23615e-05
3.20939e-05
4.79617e-05
6.00201e-05
6.67159e-05
7.05522e-05
7.26927e-05
7.40893e-05
7.46417e-05
7.42996e-05
7.33478e-05
7.22649e-05
7.12527e-05
7.00841e-05
6.89048e-05
6.78894e-05
6.72332e-05
6.68194e-05
6.6639e-05
6.66796e-05
6.69204e-05
6.73309e-05
6.77759e-05
6.82439e-05
6.86623e-05
6.9034e-05
6.93162e-05
6.95084e-05
6.96208e-05
6.96653e-05
6.96331e-05
6.95658e-05
6.94849e-05
6.92499e-05
6.91548e-05
6.9074e-05
6.89121e-05
6.88765e-05
6.87363e-05
6.8656e-05
6.85718e-05
6.84976e-05
6.84672e-05
6.84631e-05
6.8509e-05
6.8571e-05
6.85716e-05
6.86049e-05
6.8612e-05
6.86205e-05
6.85672e-05
6.85524e-05
6.85174e-05
6.84954e-05
6.8445e-05
6.84898e-05
6.84771e-05
6.84708e-05
6.85298e-05
6.85368e-05
6.85746e-05
6.861e-05
6.85999e-05
6.86637e-05
6.8655e-05
6.87021e-05
6.87118e-05
6.87455e-05
6.8762e-05
6.86909e-05
6.86969e-05
6.86362e-05
6.86186e-05
6.86044e-05
6.86302e-05
6.8613e-05
6.85974e-05
6.85861e-05
6.85958e-05
6.86131e-05
6.86884e-05
6.87385e-05
6.87632e-05
6.87955e-05
6.88161e-05
6.87905e-05
6.87613e-05
6.87476e-05
6.87275e-05
6.86882e-05
6.86686e-05
6.86847e-05
6.87042e-05
6.86959e-05
6.86914e-05
6.87017e-05
6.86939e-05
6.86378e-05
6.8578e-05
6.85383e-05
6.85081e-05
6.8472e-05
6.84841e-05
6.85687e-05
6.86899e-05
6.87995e-05
6.89217e-05
6.90486e-05
6.91103e-05
6.9056e-05
6.89268e-05
6.87458e-05
6.85166e-05
6.82539e-05
6.8047e-05
6.79714e-05
6.80583e-05
6.82764e-05
6.86341e-05
6.90945e-05
6.951e-05
6.97187e-05
6.96719e-05
6.93516e-05
6.87657e-05
6.7958e-05
6.71012e-05
6.65174e-05
6.66177e-05
6.74259e-05
6.8854e-05
7.0871e-05
7.30939e-05
7.46114e-05
7.43157e-05
7.1191e-05
6.43689e-05
5.26269e-05
3.63312e-05
2.51468e-05
2.44443e-05
2.58742e-05
2.79444e-05
2.98938e-05
2.98355e-05
2.76462e-05
2.5699e-05
2.45009e-05
2.31466e-05
2.17513e-05
2.1105e-05
2.11212e-05
2.13406e-05
2.16889e-05
2.2375e-05
2.34179e-05
2.45479e-05
2.56495e-05
2.67635e-05
2.802e-05
2.93511e-05
3.07029e-05
3.1977e-05
3.31667e-05
3.42462e-05
3.53036e-05
3.63302e-05
3.73638e-05
3.84053e-05
3.95119e-05
4.06553e-05
4.18501e-05
4.30369e-05
4.42277e-05
4.53551e-05
4.64354e-05
4.74749e-05
4.85413e-05
4.95889e-05
5.0648e-05
5.17321e-05
5.27975e-05
5.38111e-05
5.47592e-05
5.55802e-05
5.62963e-05
5.69829e-05
5.75811e-05
5.81335e-05
5.86264e-05
5.90267e-05
5.93245e-05
5.94958e-05
5.95182e-05
5.94222e-05
5.92231e-05
5.88887e-05
5.84713e-05
5.79335e-05
5.73405e-05
5.66081e-05
5.58307e-05
5.49169e-05
5.39609e-05
5.28084e-05
5.15664e-05
5.01537e-05
4.87372e-05
4.71754e-05
4.56974e-05
4.41974e-05
4.28595e-05
4.15087e-05
4.03012e-05
3.91379e-05
3.81324e-05
3.71388e-05
3.62536e-05
3.53745e-05
3.45987e-05
3.37569e-05
3.29558e-05
3.21343e-05
3.14261e-05
3.06916e-05
2.99856e-05
2.94554e-05
2.87621e-05
2.81378e-05
2.74152e-05
2.67663e-05
2.59208e-05
2.51524e-05
2.43248e-05
2.35045e-05
2.26917e-05
2.18854e-05
2.10809e-05
2.01751e-05
1.94075e-05
1.85807e-05
1.77259e-05
1.69027e-05
1.60497e-05
1.52058e-05
1.44016e-05
1.35596e-05
1.2776e-05
1.20449e-05
1.13633e-05
1.07458e-05
1.0191e-05
9.70776e-06
9.32688e-06
9.01294e-06
8.78227e-06
8.65671e-06
8.599e-06
8.60362e-06
8.66865e-06
8.77984e-06
8.91796e-06
9.07619e-06
9.24603e-06
9.40508e-06
9.56336e-06
9.71003e-06
9.83831e-06
9.95484e-06
1.00447e-05
1.01195e-05
1.0175e-05
1.02086e-05
1.02274e-05
1.02325e-05
1.02256e-05
1.02078e-05
1.01839e-05
1.01547e-05
1.0124e-05
1.00921e-05
1.00625e-05
1.00365e-05
1.0014e-05
9.99478e-06
9.98066e-06
9.9712e-06
9.96551e-06
9.9631e-06
9.96385e-06
9.96694e-06
9.97167e-06
9.97766e-06
9.98405e-06
9.9903e-06
9.99593e-06
1.00006e-05
1.00038e-05
1.00055e-05
1.00055e-05
1.00042e-05
1.0002e-05
9.9994e-06
9.99695e-06
9.99508e-06
9.99423e-06
9.99441e-06
9.9953e-06
9.99662e-06
9.99802e-06
9.99932e-06
1.00003e-05
1.0001e-05
1.00016e-05
1.00021e-05
1.00024e-05
1.00027e-05
1.00026e-05
1.00023e-05
1.00014e-05
1e-05
9.99839e-06
9.99669e-06
9.99522e-06
9.99427e-06
9.99416e-06
9.99505e-06
9.99676e-06
9.99903e-06
1.00014e-05
1.00034e-05
1.00047e-05
1.00051e-05
1.00047e-05
1.00037e-05
1.00026e-05
1.00017e-05
1.00013e-05
1.00015e-05
1.00021e-05
1.00028e-05
1.00034e-05
1.00036e-05
1.00033e-05
1.00026e-05
1.00016e-05
1.00005e-05
9.99949e-06
9.99862e-06
9.99803e-06
9.99773e-06
9.99764e-06
9.99777e-06
9.99812e-06
9.99866e-06
9.99926e-06
9.99988e-06
1.00005e-05
1.0001e-05
1.00014e-05
1.00015e-05
1.00013e-05
1.00009e-05
1.00002e-05
9.99932e-06
9.99836e-06
9.99743e-06
9.99655e-06
9.99578e-06
9.99526e-06
9.99506e-06
9.99517e-06
9.99563e-06
9.99645e-06
9.99759e-06
9.99885e-06
1.00001e-05
1.00011e-05
1.00016e-05
1.00016e-05
1.00012e-05
1.00006e-05
9.99997e-06
9.99936e-06
9.99881e-06
9.99833e-06
9.99799e-06
9.99775e-06
9.99765e-06
9.99761e-06
9.99757e-06
9.99742e-06
9.99714e-06
9.99666e-06
9.99621e-06
9.99589e-06
9.99601e-06
9.99675e-06
9.99807e-06
9.99984e-06
1.00016e-05
1.00031e-05
1.00039e-05
1.00037e-05
1.00026e-05
1.00006e-05
9.99831e-06
9.99584e-06
9.99392e-06
9.99266e-06
9.99239e-06
9.99298e-06
9.9942e-06
9.99583e-06
9.99757e-06
9.99934e-06
1.00009e-05
1.00021e-05
1.00029e-05
1.00033e-05
1.00033e-05
1.0003e-05
1.00024e-05
1.00015e-05
1.00007e-05
9.99982e-06
9.99914e-06
9.99877e-06
9.99874e-06
9.99893e-06
9.99921e-06
9.99947e-06
9.9996e-06
9.99956e-06
9.99946e-06
9.9994e-06
9.99953e-06
9.99973e-06
9.99989e-06
9.99985e-06
9.99945e-06
9.99872e-06
9.99785e-06
9.99754e-06
9.99721e-06
9.99707e-06
9.99701e-06
9.99709e-06
9.99726e-06
9.99747e-06
9.99771e-06
9.99802e-06
9.99846e-06
9.99876e-06
9.99915e-06
9.99954e-06
9.99988e-06
1.00002e-05
1.00004e-05
1.00005e-05
1.00005e-05
1.00004e-05
1.00002e-05
9.99995e-06
9.9996e-06
9.99926e-06
9.99891e-06
9.99868e-06
9.99857e-06
9.99868e-06
9.99901e-06
9.99952e-06
1.00002e-05
1.00008e-05
1.00014e-05
1.00017e-05
1.00017e-05
1.00016e-05
1.00013e-05
1.00008e-05
1.00003e-05
9.99982e-06
9.99925e-06
9.99875e-06
9.99837e-06
9.99831e-06
9.99853e-06
9.99897e-06
9.99953e-06
1.00001e-05
1.00005e-05
1.00008e-05
1.00008e-05
1.00007e-05
1.00005e-05
1.00004e-05
1.00002e-05
1.00003e-05
1.00003e-05
1.00004e-05
1.00005e-05
1.00006e-05
1.00006e-05
1.00005e-05
1.00002e-05
9.99985e-06
9.99936e-06
9.99894e-06
9.99868e-06
9.99868e-06
9.99889e-06
9.99927e-06
9.99978e-06
1.00003e-05
1.00008e-05
1.00011e-05
1.00012e-05
1.00012e-05
1.0001e-05
1.00009e-05
1.00007e-05
1.00005e-05
1.00002e-05
9.99981e-06
9.99962e-06
9.99959e-06
9.99967e-06
9.99978e-06
9.99991e-06
1e-05
1.00001e-05
1.00001e-05
1.00001e-05
1.00001e-05
1.00001e-05
9.99997e-06
9.9999e-06
9.99987e-06
9.99982e-06
9.99975e-06
9.99972e-06
9.99968e-06
9.99969e-06
9.99972e-06
9.99986e-06
1e-05
1.00002e-05
1.00002e-05
1.00004e-05
1.00004e-05
1.00004e-05
1.00002e-05
1.00001e-05
9.99991e-06
9.99972e-06
9.99951e-06
9.99938e-06
9.99939e-06
9.99952e-06
9.99963e-06
9.99973e-06
9.99977e-06
9.99979e-06
9.99979e-06
9.99987e-06
9.99996e-06
1.00001e-05
1.00001e-05
1.00001e-05
1.00001e-05
1.00001e-05
1e-05
1e-05
1.00001e-05
1.00003e-05
1.00005e-05
1.00008e-05
1.00012e-05
1.00017e-05
1.00019e-05
1.00015e-05
1e-05
9.99683e-06
9.99234e-06
9.98681e-06
9.98269e-06
9.98255e-06
9.98897e-06
1.00056e-05
1.00304e-05
1.00658e-05
1.01013e-05
1.01373e-05
1.01572e-05
1.01526e-05
1.01172e-05
1.00395e-05
9.931e-06
9.7719e-06
9.60294e-06
9.38915e-06
9.2039e-06
9.03453e-06
8.93838e-06
8.90408e-06
8.96218e-06
9.16763e-06
9.43248e-06
9.88195e-06
1.03683e-05
1.11229e-05
1.18673e-05
1.29555e-05
1.39727e-05
1.53572e-05
1.66296e-05
1.83623e-05
1.98127e-05
2.13031e-05
2.29241e-05
2.46872e-05
2.63914e-05
2.81252e-05
2.98711e-05
3.16745e-05
3.34896e-05
3.51646e-05
3.69359e-05
3.87788e-05
4.06109e-05
4.23229e-05
4.41295e-05
4.63217e-05
4.81485e-05
4.98717e-05
5.1404e-05
5.31645e-05
5.48722e-05
5.64238e-05
5.80388e-05
5.96272e-05
6.11691e-05
6.25136e-05
6.38734e-05
6.52544e-05
6.64709e-05
6.78004e-05
6.89156e-05
7.02207e-05
7.15112e-05
7.26561e-05
7.38098e-05
7.49756e-05
7.5928e-05
7.69319e-05
7.76478e-05
7.8499e-05
7.92811e-05
7.99289e-05
8.06307e-05
8.14156e-05
8.20637e-05
8.28057e-05
8.33111e-05
8.38941e-05
8.43707e-05
8.46576e-05
8.4901e-05
8.5188e-05
8.54261e-05
8.5571e-05
8.54822e-05
8.62574e-05
8.66446e-05
8.69941e-05
8.73661e-05
8.7763e-05
8.80594e-05
8.819e-05
8.82114e-05
8.81679e-05
8.79953e-05
8.77173e-05
8.74048e-05
8.71194e-05
8.67616e-05
8.63132e-05
8.57547e-05
8.51376e-05
8.43792e-05
8.35295e-05
8.2565e-05
8.15392e-05
8.04075e-05
7.92791e-05
7.81459e-05
7.71229e-05
7.61821e-05
7.53336e-05
7.43658e-05
7.32278e-05
7.19065e-05
7.05981e-05
6.94039e-05
6.85234e-05
6.78292e-05
6.71274e-05
6.59888e-05
6.46516e-05
6.34179e-05
6.23898e-05
6.14006e-05
6.05507e-05
5.98122e-05
5.9249e-05
5.88775e-05
5.84045e-05
5.78181e-05
5.7299e-05
5.67298e-05
5.62295e-05
5.59556e-05
5.60884e-05
5.64268e-05
5.71287e-05
5.81947e-05
5.94657e-05
6.11281e-05
6.30629e-05
6.52707e-05
6.73519e-05
6.95652e-05
7.16905e-05
7.40324e-05
7.59844e-05
7.83897e-05
8.02618e-05
8.27383e-05
8.50017e-05
8.78129e-05
9.07458e-05
9.41736e-05
9.67432e-05
0.000100793
0.000104824
0.000109728
0.000113682
0.000115641
0.000115208
0.000112029
0.000106296
9.79304e-05
9.01042e-05
8.63531e-05
9.34313e-05
0.000126815
0.000215284
0.000272155
0.000301903
0.000343267
0.000361215
0.000336126
0.000402655
0.000358765
0.000371022
0.000386533
0.000358031
0.000378587
0.000349831
0.000356415
0.000363274
0.000348691
0.000345106
0.000364556
0.000376306
0.000357946
0.00033109
0.000332435
0.000352219
0.000341791
0.000340247
0.000345332
0.000332569
0.000341701
0.000358929
0.000338551
0.00032808
0.000339006
0.000332703
0.000349235
0.000356556
0.00033885
0.000320991
0.000327744
0.000362459
0.000348289
0.000314679
0.000358281
0.000374473
0.000358343
0.000333513
0.000335942
0.000322384
0.00034208
0.000341519
0.000339756
0.000341968
0.000339987
0.000323995
0.000369659
0.000380025
0.000338068
0.000362796
0.000353737
0.000346304
0.000342345
0.000369539
0.000336066
0.000333818
0.000358064
0.000338342
0.000353477
0.000352531
0.000341934
0.000336709
0.000337275
0.000329766
0.000345151
0.000335483
0.000361243
0.000345561
0.000351897
0.000341058
0.000345532
0.000355104