/*--------------------------------*- C++ -*----------------------------------*\
| =========                 |                                                 |
| \\      /  F ield         | foam-extend: Open Source CFD                    |
|  \\    /   O peration     | Version:     4.0                                |
|   \\  /    A nd           | Web:         http://www.foam-extend.org         |
|    \\/     M anipulation  |                                                 |
\*---------------------------------------------------------------------------*/
FoamFile
{
    version     2.0;
    format      ascii;
    class       volScalarField;
    location    "0.018";
    object      h;
}
// * * * * * * * * * * * * * * * * * * * * * * * * * * * * * * * * * * * * * //

dimensions      [0 1 0 0 0 0 0];

internalField   nonuniform List<scalar> 
176451
(
1.00042e-05
9.99598e-06
9.99334e-06
9.99746e-06
1.00023e-05
1.00034e-05
9.99689e-06
9.99999e-06
9.99976e-06
1.00009e-05
1.00039e-05
1.00065e-05
1.00014e-05
9.9976e-06
9.99811e-06
9.99682e-06
9.99984e-06
1.00016e-05
1.00049e-05
9.99829e-06
1.00008e-05
1.00008e-05
9.99989e-06
1.00024e-05
1.00035e-05
1.00031e-05
1.00008e-05
9.99869e-06
9.99747e-06
1.00007e-05
9.99742e-06
1.00017e-05
9.99992e-06
9.99527e-06
9.99913e-06
1.00055e-05
1.00033e-05
1.00022e-05
9.99821e-06
9.99567e-06
1.00006e-05
1.00031e-05
9.99767e-06
9.99913e-06
1.00008e-05
1.00006e-05
9.99939e-06
1.00003e-05
1.00034e-05
1.00037e-05
1.0003e-05
9.99971e-06
9.9979e-06
9.99741e-06
1.00026e-05
1.00026e-05
1.00014e-05
9.99965e-06
9.99678e-06
1.00025e-05
1.00028e-05
9.99705e-06
9.99517e-06
1.00006e-05
1.00003e-05
1.00029e-05
1.00026e-05
1.0001e-05
1.00018e-05
9.99686e-06
1.00004e-05
1.00014e-05
9.999e-06
1.00032e-05
1.00024e-05
1.00013e-05
9.99873e-06
1.0001e-05
9.99826e-06
9.99259e-06
9.99906e-06
1.0007e-05
9.99701e-06
9.99922e-06
9.99912e-06
9.99866e-06
1.00018e-05
1.00014e-05
9.99957e-06
1.00021e-05
1.00015e-05
1.00014e-05
1.00017e-05
9.99972e-06
9.99806e-06
9.99589e-06
9.99751e-06
1.00015e-05
1.00017e-05
9.99941e-06
1e-05
9.99984e-06
1.00013e-05
9.99966e-06
1.0001e-05
9.99889e-06
1.0001e-05
1.00037e-05
1.0004e-05
1.00026e-05
1.00037e-05
1.00015e-05
1.00012e-05
1.00008e-05
1.00015e-05
1.00047e-05
1.00023e-05
9.99993e-06
1.00035e-05
1.00013e-05
9.99936e-06
9.99587e-06
9.99585e-06
9.99795e-06
1.00028e-05
1.00013e-05
1.00002e-05
9.99989e-06
9.99993e-06
1.00025e-05
1.00013e-05
1.00024e-05
1.00005e-05
1.00031e-05
9.99855e-06
9.99972e-06
1.00062e-05
9.99621e-06
1.00003e-05
1.00002e-05
9.99909e-06
9.99876e-06
1.00044e-05
1.00021e-05
9.99629e-06
9.99776e-06
1.00021e-05
1.00041e-05
9.99858e-06
1.00006e-05
1.00046e-05
9.99954e-06
9.99833e-06
9.99899e-06
9.99755e-06
1.00009e-05
1.00011e-05
9.99805e-06
1.00018e-05
1.00016e-05
9.9996e-06
1e-05
9.99683e-06
9.99867e-06
1.00001e-05
1.00028e-05
1.00003e-05
9.99987e-06
9.99866e-06
1.00015e-05
9.99521e-06
9.99897e-06
1.00044e-05
1.00011e-05
9.99748e-06
9.99975e-06
1.00039e-05
9.99473e-06
1.00019e-05
1.00022e-05
1.00015e-05
1.00008e-05
9.99515e-06
1.00009e-05
9.99713e-06
9.9993e-06
1.0001e-05
1.00058e-05
1.00072e-05
1.00026e-05
1.00063e-05
1.00004e-05
9.99443e-06
9.98939e-06
9.98608e-06
9.98509e-06
9.98622e-06
9.98874e-06
9.99188e-06
9.99481e-06
9.99717e-06
9.99873e-06
9.99968e-06
1.00002e-05
1.00006e-05
1.00009e-05
1.0001e-05
1.00011e-05
1.0001e-05
1.00006e-05
1.00001e-05
9.99966e-06
9.99944e-06
9.99956e-06
1.00001e-05
1.00012e-05
1.00026e-05
1.00042e-05
1.0006e-05
1.00079e-05
1.00099e-05
1.00116e-05
1.00132e-05
1.00146e-05
1.00159e-05
1.00171e-05
1.00181e-05
1.0019e-05
1.00197e-05
1.00198e-05
1.0019e-05
1.00174e-05
1.0015e-05
1.00121e-05
1.0009e-05
1.00062e-05
1.00039e-05
1.00022e-05
1.00011e-05
1.00005e-05
1.00002e-05
9.99989e-06
9.99973e-06
9.99961e-06
9.99953e-06
9.99942e-06
9.99939e-06
9.99928e-06
9.99908e-06
9.99881e-06
9.99861e-06
9.9984e-06
9.99837e-06
9.99847e-06
9.9988e-06
9.99923e-06
9.9996e-06
9.99984e-06
9.99989e-06
9.99973e-06
9.99933e-06
9.99878e-06
9.99832e-06
9.99801e-06
9.99797e-06
9.99822e-06
9.9988e-06
9.99958e-06
1.00004e-05
1.00011e-05
1.00018e-05
1.00026e-05
1.00033e-05
1.00042e-05
1.00051e-05
1.00058e-05
1.00058e-05
1.00051e-05
1.00037e-05
1.00017e-05
9.99946e-06
9.99716e-06
9.99528e-06
9.9938e-06
9.99276e-06
9.99209e-06
9.99178e-06
9.99162e-06
9.9915e-06
9.99139e-06
9.99135e-06
9.99132e-06
9.99133e-06
9.99145e-06
9.99178e-06
9.99228e-06
9.99294e-06
9.99385e-06
9.99497e-06
9.99614e-06
9.99715e-06
9.99789e-06
9.99833e-06
9.99847e-06
9.99846e-06
9.99858e-06
9.99911e-06
1.00001e-05
1.00014e-05
1.00029e-05
1.00043e-05
1.0005e-05
1.00049e-05
1.00039e-05
1.00023e-05
1.00003e-05
9.99853e-06
9.99725e-06
9.99681e-06
9.99707e-06
9.99782e-06
9.9989e-06
1.00001e-05
1.00012e-05
1.00021e-05
1.00029e-05
1.00037e-05
1.00043e-05
1.00048e-05
1.00053e-05
1.00057e-05
1.00062e-05
1.00067e-05
1.00074e-05
1.00082e-05
1.0009e-05
1.00098e-05
1.00104e-05
1.00107e-05
1.00107e-05
1.00102e-05
1.00093e-05
1.00081e-05
1.00066e-05
1.00049e-05
1.00031e-05
1.00011e-05
9.99905e-06
9.99724e-06
9.9958e-06
9.99488e-06
9.99465e-06
9.99516e-06
9.99641e-06
9.99824e-06
1.00006e-05
1.00032e-05
1.00059e-05
1.00078e-05
1.00087e-05
1.00081e-05
1.00059e-05
1.00024e-05
9.99826e-06
9.99448e-06
9.99165e-06
9.99023e-06
9.9903e-06
9.99156e-06
9.99351e-06
9.99551e-06
9.99716e-06
9.9982e-06
9.99863e-06
9.99855e-06
9.99827e-06
9.9981e-06
9.99824e-06
9.99872e-06
9.99958e-06
1.00007e-05
1.0002e-05
1.00032e-05
1.00043e-05
1.00053e-05
1.0006e-05
1.00064e-05
1.00066e-05
1.00066e-05
1.00063e-05
1.00057e-05
1.00048e-05
1.00035e-05
1.00019e-05
9.99996e-06
9.99786e-06
9.99588e-06
9.99416e-06
9.99278e-06
9.9918e-06
9.99124e-06
9.99104e-06
9.99109e-06
9.99138e-06
9.99188e-06
9.99248e-06
9.99296e-06
9.99323e-06
9.99327e-06
9.99313e-06
9.99289e-06
9.99282e-06
9.99309e-06
9.99378e-06
9.99483e-06
9.99618e-06
9.99771e-06
9.99931e-06
1.00007e-05
1.00018e-05
1.00025e-05
1.00028e-05
1.00027e-05
1.00024e-05
1.00022e-05
1.00022e-05
1.00027e-05
1.00036e-05
1.00049e-05
1.00064e-05
1.0008e-05
1.00094e-05
1.00105e-05
1.00113e-05
1.00115e-05
1.00113e-05
1.00107e-05
1.00097e-05
1.00085e-05
1.00073e-05
1.00062e-05
1.00055e-05
1.00049e-05
1.00046e-05
1.00044e-05
1.00041e-05
1.00036e-05
1.00029e-05
1.0002e-05
1.00008e-05
9.99908e-06
9.99701e-06
9.99437e-06
9.99143e-06
9.98815e-06
9.98528e-06
9.98317e-06
9.98218e-06
9.98223e-06
9.98337e-06
9.98538e-06
9.98789e-06
9.99082e-06
9.9937e-06
9.99656e-06
9.99912e-06
1.00014e-05
1.00032e-05
1.00047e-05
1.00057e-05
1.00064e-05
1.00069e-05
1.00074e-05
1.00078e-05
1.00083e-05
1.00087e-05
1.00092e-05
1.00095e-05
1.00097e-05
1.00097e-05
1.00095e-05
1.00092e-05
1.00087e-05
1.00082e-05
1.00074e-05
1.00065e-05
1.00054e-05
1.00042e-05
1.00032e-05
1.00024e-05
1.00018e-05
1.00017e-05
1.00017e-05
1.00018e-05
1.00017e-05
1.00014e-05
1.0001e-05
1.00003e-05
9.99962e-06
9.99904e-06
9.99874e-06
9.99877e-06
9.9992e-06
9.99992e-06
1.00007e-05
1.00014e-05
1.00018e-05
1.00018e-05
1.00015e-05
1.00008e-05
9.99999e-06
9.99918e-06
9.99836e-06
9.99754e-06
9.99664e-06
9.99589e-06
9.99532e-06
9.99497e-06
9.99492e-06
9.99533e-06
9.99617e-06
9.99729e-06
9.99855e-06
9.99974e-06
1.00007e-05
1.00013e-05
1.00013e-05
1.00008e-05
9.99971e-06
9.99831e-06
9.99675e-06
9.99544e-06
9.99465e-06
9.99456e-06
9.99514e-06
9.99613e-06
9.99734e-06
9.99853e-06
9.99957e-06
1.00003e-05
1.00007e-05
1.00008e-05
1.00005e-05
9.99983e-06
9.99891e-06
9.99793e-06
9.99707e-06
9.99644e-06
9.99611e-06
9.99606e-06
9.99612e-06
9.99609e-06
9.99591e-06
9.9956e-06
9.99528e-06
9.99502e-06
9.99501e-06
9.99536e-06
9.99617e-06
9.99738e-06
9.99909e-06
1.00013e-05
1.00041e-05
1.00073e-05
1.00106e-05
1.00136e-05
1.00158e-05
1.00169e-05
1.00164e-05
1.00147e-05
1.00119e-05
1.00085e-05
1.00049e-05
1.00015e-05
9.99824e-06
9.99518e-06
9.99223e-06
9.98954e-06
9.98714e-06
9.98515e-06
9.98369e-06
9.98291e-06
9.98277e-06
9.98316e-06
9.98403e-06
9.98524e-06
9.98665e-06
9.98799e-06
9.98914e-06
9.98997e-06
9.99048e-06
9.99065e-06
9.99064e-06
9.99066e-06
9.99089e-06
9.99141e-06
9.99237e-06
9.9938e-06
9.9957e-06
9.99791e-06
1.00004e-05
1.00029e-05
1.00054e-05
1.00077e-05
1.00096e-05
1.00111e-05
1.00122e-05
1.00129e-05
1.00133e-05
1.00136e-05
1.00138e-05
1.00138e-05
1.00136e-05
1.00131e-05
1.00121e-05
1.00106e-05
1.00087e-05
1.00066e-05
1.00045e-05
1.00027e-05
1.00016e-05
1.00012e-05
1.00017e-05
1.00028e-05
1.00042e-05
1.00057e-05
1.00069e-05
1.00075e-05
1.00075e-05
1.00067e-05
1.00052e-05
1.00032e-05
1.00012e-05
9.99932e-06
9.99802e-06
9.99735e-06
9.99755e-06
9.9985e-06
9.99991e-06
1.00014e-05
1.00027e-05
1.00034e-05
1.00035e-05
1.00032e-05
1.00029e-05
1.0003e-05
1.00037e-05
1.0005e-05
1.00067e-05
1.00084e-05
1.00098e-05
1.00104e-05
1.00104e-05
1.00096e-05
1.00085e-05
1.00068e-05
1.00049e-05
1.00026e-05
1.00001e-05
9.99701e-06
9.99419e-06
9.99185e-06
9.99058e-06
9.99072e-06
9.99245e-06
9.99579e-06
1e-05
1.00048e-05
1.0009e-05
1.00121e-05
1.00137e-05
1.00135e-05
1.00119e-05
1.00092e-05
1.00063e-05
1.00033e-05
1.00011e-05
9.99953e-06
9.99868e-06
9.99824e-06
9.99804e-06
9.99787e-06
9.99767e-06
9.99752e-06
9.99758e-06
9.99786e-06
9.9983e-06
9.99887e-06
9.99944e-06
9.99987e-06
1e-05
9.99995e-06
9.99967e-06
9.99916e-06
9.99837e-06
9.99722e-06
9.99569e-06
9.99396e-06
9.99215e-06
9.99045e-06
9.98916e-06
9.98843e-06
9.98818e-06
9.98816e-06
9.9882e-06
9.98808e-06
9.98769e-06
9.98707e-06
9.98644e-06
9.98592e-06
9.98577e-06
9.98606e-06
9.9869e-06
9.98838e-06
9.99054e-06
9.99364e-06
9.99766e-06
1.00027e-05
1.00082e-05
1.00141e-05
1.00193e-05
1.00234e-05
1.00257e-05
1.00262e-05
1.00251e-05
1.00226e-05
1.00195e-05
1.00163e-05
1.00133e-05
1.00105e-05
1.00081e-05
1.00056e-05
1.00029e-05
9.99981e-06
9.99666e-06
9.99356e-06
9.99077e-06
9.98849e-06
9.98696e-06
9.98614e-06
9.98586e-06
9.98599e-06
9.98638e-06
9.9869e-06
9.98747e-06
9.98819e-06
9.98922e-06
9.99075e-06
9.99285e-06
9.99568e-06
9.99916e-06
1.00033e-05
1.00077e-05
1.00123e-05
1.00164e-05
1.002e-05
1.00225e-05
1.00238e-05
1.0024e-05
1.00233e-05
1.0022e-05
1.00206e-05
1.00194e-05
1.00185e-05
1.00174e-05
1.00157e-05
1.00131e-05
1.00091e-05
1.00035e-05
9.99661e-06
9.98946e-06
9.98278e-06
9.9777e-06
9.97506e-06
9.97539e-06
9.97855e-06
9.98373e-06
9.98996e-06
9.99585e-06
1.00006e-05
1.00033e-05
1.00039e-05
1.00027e-05
1.00003e-05
9.99732e-06
9.99426e-06
9.99162e-06
9.98947e-06
9.98783e-06
9.98671e-06
9.98622e-06
9.9865e-06
9.98773e-06
9.99012e-06
9.99358e-06
9.99791e-06
1.00023e-05
1.00062e-05
1.00088e-05
1.00099e-05
1.00094e-05
1.00076e-05
1.00053e-05
1.0003e-05
1.00011e-05
9.99992e-06
9.99936e-06
9.99922e-06
9.99914e-06
9.99886e-06
9.99821e-06
9.99704e-06
9.99535e-06
9.99326e-06
9.99114e-06
9.98923e-06
9.98777e-06
9.98696e-06
9.98689e-06
9.98752e-06
9.98865e-06
9.99018e-06
9.99194e-06
9.99379e-06
9.99575e-06
9.99781e-06
1e-05
1.00023e-05
1.00047e-05
1.00067e-05
1.00085e-05
1.00095e-05
1.00098e-05
1.00093e-05
1.00081e-05
1.00065e-05
1.00046e-05
1.00029e-05
1.00015e-05
1.00006e-05
1.00002e-05
1.00004e-05
1.00009e-05
1.00015e-05
1.00019e-05
1.0002e-05
1.00016e-05
1.00008e-05
9.99962e-06
9.9985e-06
9.99764e-06
9.99732e-06
9.9975e-06
9.99821e-06
9.99933e-06
1.00006e-05
1.00018e-05
1.00028e-05
1.00036e-05
1.0004e-05
1.00042e-05
1.00042e-05
1.00041e-05
1.0004e-05
1.00039e-05
1.00038e-05
1.00037e-05
1.00036e-05
1.00033e-05
1.00028e-05
1.00017e-05
1.00001e-05
9.99787e-06
9.99519e-06
9.99226e-06
9.98926e-06
9.98655e-06
9.98438e-06
9.98301e-06
9.98248e-06
9.98281e-06
9.98402e-06
9.98604e-06
9.98861e-06
9.99161e-06
9.99466e-06
9.99759e-06
1.00001e-05
1.0002e-05
1.00033e-05
1.00039e-05
1.00039e-05
1.00032e-05
1.00022e-05
1.0001e-05
9.99974e-06
9.99857e-06
9.99764e-06
9.99694e-06
9.99646e-06
9.99606e-06
9.99575e-06
9.99549e-06
9.99531e-06
9.99543e-06
9.99597e-06
9.99708e-06
9.99878e-06
1.0001e-05
1.00035e-05
1.0006e-05
1.00081e-05
1.00097e-05
1.00106e-05
1.00108e-05
1.00106e-05
1.00102e-05
1.00097e-05
1.00091e-05
1.00085e-05
1.00078e-05
1.00069e-05
1.00055e-05
1.00039e-05
1.0002e-05
1.00001e-05
9.99817e-06
9.99665e-06
9.99557e-06
9.99492e-06
9.99469e-06
9.99484e-06
9.99525e-06
9.99575e-06
9.99629e-06
9.9968e-06
9.99722e-06
9.9974e-06
9.99734e-06
9.99713e-06
9.99689e-06
9.99669e-06
9.99671e-06
9.99712e-06
9.99804e-06
9.99937e-06
1.00011e-05
1.00029e-05
1.00046e-05
1.00058e-05
1.00062e-05
1.00057e-05
1.00044e-05
1.00026e-05
1.00006e-05
9.99914e-06
9.99843e-06
9.99858e-06
9.99954e-06
1.0001e-05
1.00026e-05
1.0004e-05
1.00049e-05
1.00053e-05
1.00053e-05
1.00051e-05
1.00047e-05
1.00045e-05
1.00043e-05
1.00042e-05
1.0004e-05
1.00036e-05
1.00028e-05
1.00016e-05
9.99985e-06
9.99794e-06
9.99603e-06
9.99445e-06
9.99344e-06
9.9932e-06
9.99364e-06
9.99447e-06
9.99544e-06
9.99629e-06
9.99689e-06
9.99719e-06
9.99736e-06
9.99762e-06
9.9981e-06
9.99878e-06
9.99961e-06
1.00004e-05
1.0001e-05
1.00012e-05
1.0001e-05
1.00005e-05
9.99969e-06
9.99875e-06
9.99778e-06
9.99688e-06
9.99603e-06
9.99522e-06
9.9945e-06
9.99404e-06
9.99395e-06
9.99438e-06
9.99548e-06
9.99723e-06
9.99953e-06
1.0002e-05
1.00044e-05
1.00064e-05
1.00076e-05
1.00079e-05
1.00072e-05
1.00058e-05
1.00038e-05
1.00015e-05
9.99942e-06
9.99781e-06
9.99688e-06
9.99677e-06
9.9976e-06
9.9992e-06
1.00012e-05
1.00031e-05
1.00044e-05
1.00049e-05
1.00042e-05
1.00022e-05
9.99956e-06
9.99648e-06
9.99368e-06
9.99136e-06
9.99016e-06
9.99005e-06
9.99092e-06
9.99248e-06
9.99432e-06
9.99623e-06
9.99792e-06
9.9994e-06
1.00006e-05
1.00016e-05
1.00025e-05
1.00033e-05
1.00041e-05
1.00047e-05
1.00051e-05
1.00051e-05
1.00047e-05
1.00037e-05
1.00023e-05
1.00002e-05
9.99803e-06
9.99567e-06
9.99357e-06
9.99183e-06
9.99095e-06
9.99089e-06
9.9916e-06
9.99289e-06
9.99438e-06
9.99571e-06
9.99649e-06
9.99653e-06
9.99594e-06
9.99488e-06
9.99395e-06
9.9935e-06
9.99409e-06
9.99594e-06
9.99891e-06
1.00029e-05
1.00071e-05
1.00112e-05
1.00143e-05
1.00161e-05
1.00165e-05
1.00154e-05
1.00134e-05
1.00103e-05
1.00072e-05
1.0004e-05
1.00014e-05
9.99924e-06
9.99796e-06
9.99734e-06
9.99748e-06
9.99818e-06
9.99927e-06
1.00006e-05
1.00019e-05
1.00031e-05
1.00042e-05
1.0005e-05
1.00057e-05
1.00062e-05
1.00065e-05
1.00065e-05
1.0006e-05
1.00048e-05
1.0003e-05
1.00004e-05
9.99743e-06
9.99415e-06
9.99117e-06
9.98862e-06
9.98698e-06
9.98633e-06
9.98691e-06
9.98863e-06
9.99119e-06
9.99443e-06
9.99775e-06
1.00009e-05
1.00032e-05
1.00047e-05
1.00052e-05
1.00046e-05
1.00035e-05
1.00019e-05
1.00003e-05
9.9989e-06
9.99799e-06
9.99759e-06
9.99756e-06
9.99779e-06
9.99813e-06
9.99844e-06
9.9986e-06
9.99863e-06
9.99859e-06
9.99858e-06
9.99866e-06
9.99897e-06
9.9996e-06
1.00005e-05
1.00016e-05
1.00026e-05
1.00032e-05
1.00033e-05
1.00026e-05
1.00013e-05
9.99935e-06
9.99714e-06
9.99497e-06
9.99318e-06
9.99216e-06
9.99206e-06
9.9928e-06
9.99428e-06
9.99622e-06
9.99838e-06
1.00003e-05
1.00019e-05
1.0003e-05
1.00035e-05
1.00036e-05
1.00034e-05
1.00031e-05
1.00026e-05
1.0002e-05
1.00013e-05
1.00002e-05
9.99883e-06
9.99704e-06
9.995e-06
9.99303e-06
9.9914e-06
9.99039e-06
9.9903e-06
9.99125e-06
9.99322e-06
9.99588e-06
9.99897e-06
1.0002e-05
1.00045e-05
1.00061e-05
1.00067e-05
1.00062e-05
1.00049e-05
1.00029e-05
1.00006e-05
9.99858e-06
9.9969e-06
9.99575e-06
9.9952e-06
9.99523e-06
9.99571e-06
9.99641e-06
9.99726e-06
9.99817e-06
9.99905e-06
9.99964e-06
9.99988e-06
9.99972e-06
9.99918e-06
9.99834e-06
9.99742e-06
9.99674e-06
9.99647e-06
9.99663e-06
9.99723e-06
9.99811e-06
9.99908e-06
9.99986e-06
1.00004e-05
1.00006e-05
1.00005e-05
1.00002e-05
9.99971e-06
9.99923e-06
9.9989e-06
9.99877e-06
9.99893e-06
9.99939e-06
1.00002e-05
1.00012e-05
1.00023e-05
1.00035e-05
1.00045e-05
1.00054e-05
1.00059e-05
1.00061e-05
1.0006e-05
1.00055e-05
1.00049e-05
1.00042e-05
1.00036e-05
1.00031e-05
1.00028e-05
1.00029e-05
1.00031e-05
1.00035e-05
1.00038e-05
1.0004e-05
1.0004e-05
1.00037e-05
1.0003e-05
1.00019e-05
1.00006e-05
9.99911e-06
9.99768e-06
9.99635e-06
9.99542e-06
9.99482e-06
9.99473e-06
9.99503e-06
9.99562e-06
9.99631e-06
9.99691e-06
9.99734e-06
9.99749e-06
9.99725e-06
9.9967e-06
9.99589e-06
9.99507e-06
9.99423e-06
9.99366e-06
9.99336e-06
9.99355e-06
9.99423e-06
9.99535e-06
9.9968e-06
9.99836e-06
9.99992e-06
1.00012e-05
1.00022e-05
1.00028e-05
1.00029e-05
1.00025e-05
1.00017e-05
1.00007e-05
9.99935e-06
9.99815e-06
9.99703e-06
9.99629e-06
9.99587e-06
9.99591e-06
9.99631e-06
9.99702e-06
9.99798e-06
9.99901e-06
1e-05
1.00009e-05
1.00016e-05
1.00019e-05
1.0002e-05
1.00019e-05
1.00016e-05
1.00014e-05
1.00013e-05
1.00014e-05
1.00015e-05
1.00016e-05
1.00017e-05
1.00015e-05
1.00011e-05
1.00004e-05
9.99955e-06
9.9987e-06
9.9979e-06
9.99742e-06
9.99726e-06
9.9975e-06
9.99805e-06
9.99883e-06
9.99974e-06
1.00006e-05
1.00014e-05
1.0002e-05
1.00024e-05
1.00026e-05
1.00026e-05
1.00024e-05
1.0002e-05
1.00016e-05
1.00013e-05
1.00009e-05
1.00006e-05
1.00003e-05
1.00001e-05
9.99982e-06
9.9994e-06
9.99895e-06
9.99854e-06
9.99824e-06
9.99819e-06
9.99846e-06
9.99907e-06
9.99987e-06
1.00008e-05
1.00016e-05
1.00023e-05
1.00026e-05
1.00025e-05
1.00021e-05
1.00014e-05
1.00004e-05
9.99938e-06
9.99844e-06
9.99769e-06
9.99721e-06
9.99708e-06
9.99736e-06
9.99804e-06
9.99895e-06
1e-05
1.00011e-05
1.00022e-05
1.0003e-05
1.00034e-05
1.00035e-05
1.00032e-05
1.00024e-05
1.00012e-05
9.99986e-06
9.99841e-06
9.99703e-06
9.99592e-06
9.99528e-06
9.99516e-06
9.99553e-06
9.99634e-06
9.99743e-06
9.99864e-06
9.99969e-06
1.00004e-05
1.00008e-05
1.00007e-05
1.00002e-05
9.99934e-06
9.99852e-06
9.99781e-06
9.9973e-06
9.99711e-06
9.99736e-06
9.99802e-06
9.99896e-06
1.00001e-05
1.00012e-05
1.00021e-05
1.00027e-05
1.00029e-05
1.00027e-05
1.00021e-05
1.00013e-05
1.00004e-05
9.9995e-06
9.99869e-06
9.99796e-06
9.99734e-06
9.99687e-06
9.99655e-06
9.99634e-06
9.99631e-06
9.99651e-06
9.99699e-06
9.9977e-06
9.99865e-06
9.99977e-06
1.0001e-05
1.00021e-05
1.00031e-05
1.00037e-05
1.00041e-05
1.00041e-05
1.00038e-05
1.00033e-05
1.00026e-05
1.00019e-05
1.00012e-05
1.00006e-05
1.00002e-05
9.99982e-06
9.99958e-06
9.99944e-06
9.99947e-06
9.9996e-06
9.9998e-06
1e-05
1.00002e-05
1.00004e-05
1.00005e-05
1.00005e-05
1.00006e-05
1.00008e-05
1.0001e-05
1.00012e-05
1.00015e-05
1.00018e-05
1.0002e-05
1.0002e-05
1.00018e-05
1.00014e-05
1.00008e-05
1.00001e-05
9.99958e-06
9.99907e-06
9.99869e-06
9.99839e-06
9.99824e-06
9.99813e-06
9.99808e-06
9.99804e-06
9.99806e-06
9.99805e-06
9.99807e-06
9.99811e-06
9.99825e-06
9.99843e-06
9.99869e-06
9.99903e-06
9.9995e-06
1.00001e-05
1.00007e-05
1.00013e-05
1.00016e-05
1.00016e-05
1.00008e-05
9.99877e-06
9.99544e-06
9.99001e-06
9.9837e-06
9.97668e-06
9.97158e-06
9.96985e-06
9.97448e-06
9.98829e-06
1.00104e-05
1.00431e-05
1.00792e-05
1.01183e-05
1.01498e-05
1.01728e-05
1.01766e-05
1.01562e-05
1.01086e-05
1.00296e-05
9.93167e-06
9.80548e-06
9.66316e-06
9.50625e-06
9.36158e-06
9.22611e-06
9.10464e-06
8.99776e-06
8.92339e-06
8.86985e-06
8.8394e-06
8.82812e-06
8.8183e-06
8.84045e-06
8.89622e-06
8.96499e-06
9.02724e-06
9.14135e-06
9.31681e-06
9.4647e-06
9.69152e-06
9.93837e-06
1.02274e-05
1.05616e-05
1.10322e-05
1.14906e-05
1.20926e-05
1.26868e-05
1.35033e-05
1.42896e-05
1.51297e-05
1.61274e-05
1.71485e-05
1.81519e-05
1.91476e-05
2.02333e-05
2.12688e-05
2.22117e-05
2.31251e-05
2.42587e-05
2.55763e-05
2.71554e-05
2.89973e-05
3.11763e-05
3.34564e-05
3.58664e-05
3.85052e-05
4.17323e-05
4.54306e-05
4.96128e-05
5.42502e-05
6.00237e-05
6.72559e-05
7.64507e-05
8.70535e-05
9.98424e-05
0.000111671
0.000121908
0.000131119
0.000137014
0.000126254
0.000137199
0.000148364
0.000150524
0.000146083
0.000159367
0.000156205
0.000157
0.000154885
0.000147398
0.000138334
0.000128499
0.000124278
0.00011314
0.000102304
9.14828e-05
7.97323e-05
6.95068e-05
6.38846e-05
6.13715e-05
6.0492e-05
6.02799e-05
6.05636e-05
6.14551e-05
6.28171e-05
6.43282e-05
6.55294e-05
6.62185e-05
6.63094e-05
6.59443e-05
6.53803e-05
6.48075e-05
6.42851e-05
6.38041e-05
6.33729e-05
6.29604e-05
6.2508e-05
6.19852e-05
6.14279e-05
6.08395e-05
6.02006e-05
5.94864e-05
5.87275e-05
5.79126e-05
5.70358e-05
5.60881e-05
5.51315e-05
5.41535e-05
5.31431e-05
5.20346e-05
5.08331e-05
4.95152e-05
4.81302e-05
4.66855e-05
4.52338e-05
4.37062e-05
4.20611e-05
4.01914e-05
3.81008e-05
3.57115e-05
3.31097e-05
3.03403e-05
2.76434e-05
2.51299e-05
2.31668e-05
2.20143e-05
2.182e-05
2.28259e-05
2.49451e-05
2.80037e-05
3.17222e-05
3.47521e-05
3.56912e-05
3.34489e-05
2.78266e-05
2.30079e-05
2.40055e-05
4.01497e-05
5.48821e-05
6.3546e-05
6.86726e-05
7.13352e-05
7.30472e-05
7.39943e-05
7.40925e-05
7.33708e-05
7.23346e-05
7.13734e-05
7.03034e-05
6.9165e-05
6.81086e-05
6.741e-05
6.7001e-05
6.68319e-05
6.6846e-05
6.7016e-05
6.73404e-05
6.7717e-05
6.81168e-05
6.847e-05
6.88051e-05
6.90622e-05
6.92594e-05
6.93624e-05
6.93916e-05
6.9348e-05
6.92851e-05
6.92028e-05
6.90511e-05
6.89202e-05
6.87869e-05
6.8695e-05
6.86132e-05
6.85434e-05
6.85113e-05
6.85216e-05
6.84489e-05
6.85107e-05
6.85957e-05
6.86061e-05
6.87134e-05
6.87029e-05
6.87158e-05
6.8698e-05
6.8663e-05
6.86422e-05
6.86227e-05
6.86376e-05
6.86625e-05
6.86248e-05
6.86248e-05
6.86072e-05
6.86016e-05
6.8546e-05
6.85381e-05
6.8517e-05
6.85127e-05
6.84803e-05
6.85419e-05
6.85424e-05
6.85456e-05
6.86108e-05
6.8618e-05
6.86527e-05
6.86814e-05
6.86594e-05
6.87105e-05
6.86865e-05
6.87196e-05
6.87161e-05
6.87399e-05
6.87492e-05
6.86735e-05
6.86793e-05
6.86205e-05
6.8606e-05
6.85933e-05
6.86168e-05
6.85931e-05
6.85667e-05
6.85422e-05
6.85403e-05
6.85508e-05
6.86276e-05
6.86908e-05
6.87398e-05
6.88074e-05
6.88683e-05
6.88806e-05
6.88789e-05
6.88738e-05
6.88347e-05
6.87469e-05
6.86516e-05
6.85733e-05
6.85028e-05
6.84304e-05
6.84057e-05
6.8456e-05
6.85563e-05
6.86642e-05
6.88029e-05
6.89646e-05
6.90783e-05
6.90836e-05
6.90078e-05
6.88669e-05
6.86574e-05
6.83873e-05
6.81428e-05
6.80009e-05
6.80148e-05
6.81791e-05
6.85114e-05
6.89781e-05
6.94471e-05
6.9773e-05
6.98922e-05
6.97494e-05
6.93102e-05
6.86018e-05
6.77366e-05
6.69363e-05
6.66447e-05
6.71115e-05
6.82968e-05
7.01008e-05
7.22838e-05
7.42145e-05
7.49198e-05
7.33057e-05
6.84607e-05
5.93417e-05
4.49208e-05
2.74486e-05
2.37714e-05
2.47593e-05
2.65829e-05
2.89816e-05
3.02476e-05
2.8962e-05
2.66456e-05
2.51391e-05
2.3893e-05
2.23745e-05
2.13862e-05
2.11909e-05
2.13636e-05
2.16201e-05
2.21259e-05
2.30346e-05
2.41444e-05
2.52442e-05
2.62846e-05
2.74276e-05
2.86858e-05
3.00135e-05
3.12878e-05
3.24819e-05
3.35521e-05
3.45735e-05
3.55375e-05
3.64843e-05
3.74231e-05
3.84178e-05
3.94449e-05
4.05271e-05
4.16157e-05
4.27197e-05
4.37708e-05
4.4792e-05
4.57954e-05
4.68521e-05
4.79299e-05
4.90502e-05
5.01893e-05
5.13762e-05
5.25459e-05
5.36882e-05
5.47566e-05
5.57881e-05
5.67332e-05
5.76192e-05
5.85782e-05
5.93756e-05
6.00622e-05
6.07827e-05
6.13696e-05
6.1864e-05
6.22992e-05
6.26374e-05
6.29008e-05
6.31182e-05
6.32416e-05
6.33067e-05
6.32752e-05
6.31491e-05
6.29356e-05
6.26406e-05
6.22013e-05
6.16475e-05
6.09116e-05
6.00712e-05
5.903e-05
5.79358e-05
5.66929e-05
5.54582e-05
5.40767e-05
5.26939e-05
5.12095e-05
4.97745e-05
4.8213e-05
4.67101e-05
4.51198e-05
4.36131e-05
4.20132e-05
4.05229e-05
3.90464e-05
3.77598e-05
3.65261e-05
3.54811e-05
3.45079e-05
3.36976e-05
3.28598e-05
3.20666e-05
3.1225e-05
3.04461e-05
2.95861e-05
2.8721e-05
2.80013e-05
2.71356e-05
2.63747e-05
2.55749e-05
2.49008e-05
2.40904e-05
2.33819e-05
2.26255e-05
2.18651e-05
2.10893e-05
2.0294e-05
1.94811e-05
1.85635e-05
1.7788e-05
1.69769e-05
1.6164e-05
1.54013e-05
1.4628e-05
1.38699e-05
1.31494e-05
1.23974e-05
1.17063e-05
1.10757e-05
1.05074e-05
1.00136e-05
9.59291e-06
9.24608e-06
8.98928e-06
8.79151e-06
8.66326e-06
8.61504e-06
8.62126e-06
8.67143e-06
8.76589e-06
8.89306e-06
9.03675e-06
9.19446e-06
9.35914e-06
9.51032e-06
9.65854e-06
9.79404e-06
9.91043e-06
1.00141e-05
1.00923e-05
1.01558e-05
1.02012e-05
1.02265e-05
1.02383e-05
1.0238e-05
1.02273e-05
1.02071e-05
1.01822e-05
1.0153e-05
1.01232e-05
1.0093e-05
1.00653e-05
1.00411e-05
1.00201e-05
1.0002e-05
9.98832e-06
9.9787e-06
9.97225e-06
9.96855e-06
9.96772e-06
9.96915e-06
9.97224e-06
9.9767e-06
9.98192e-06
9.9874e-06
9.99263e-06
9.99731e-06
1.00008e-05
1.00029e-05
1.00036e-05
1.0003e-05
1.00013e-05
9.99902e-06
9.99673e-06
9.99487e-06
9.99389e-06
9.99389e-06
9.99461e-06
9.99583e-06
9.99726e-06
9.99871e-06
9.99995e-06
1.0001e-05
1.00019e-05
1.00027e-05
1.00033e-05
1.00036e-05
1.00035e-05
1.00029e-05
1.00017e-05
9.99985e-06
9.99774e-06
9.99561e-06
9.9938e-06
9.99265e-06
9.9925e-06
9.99352e-06
9.99549e-06
9.9981e-06
1.00008e-05
1.00032e-05
1.00048e-05
1.00054e-05
1.00051e-05
1.00042e-05
1.00031e-05
1.00023e-05
1.0002e-05
1.00024e-05
1.00032e-05
1.00041e-05
1.00048e-05
1.00051e-05
1.00048e-05
1.0004e-05
1.00028e-05
1.00013e-05
9.99988e-06
9.99854e-06
9.99748e-06
9.99674e-06
9.99632e-06
9.99624e-06
9.99657e-06
9.99731e-06
9.99831e-06
9.99952e-06
1.00008e-05
1.00021e-05
1.0003e-05
1.00035e-05
1.00034e-05
1.00028e-05
1.00016e-05
9.99995e-06
9.99812e-06
9.99631e-06
9.99469e-06
9.9934e-06
9.99265e-06
9.99251e-06
9.99293e-06
9.99389e-06
9.99529e-06
9.99701e-06
9.99877e-06
1.00004e-05
1.00016e-05
1.00023e-05
1.00024e-05
1.0002e-05
1.00015e-05
1.0001e-05
1.00004e-05
9.9999e-06
9.9994e-06
9.999e-06
9.99861e-06
9.99829e-06
9.99798e-06
9.99764e-06
9.99717e-06
9.99662e-06
9.99593e-06
9.99535e-06
9.99499e-06
9.99516e-06
9.996e-06
9.99744e-06
9.99933e-06
1.00012e-05
1.00027e-05
1.00034e-05
1.00032e-05
1.00019e-05
9.99967e-06
9.99714e-06
9.99443e-06
9.99231e-06
9.99091e-06
9.99056e-06
9.99114e-06
9.9924e-06
9.99413e-06
9.99598e-06
9.9979e-06
9.99958e-06
1.0001e-05
1.00019e-05
1.00024e-05
1.00025e-05
1.00022e-05
1.00017e-05
1.0001e-05
1.00001e-05
9.99926e-06
9.9985e-06
9.99799e-06
9.99777e-06
9.99773e-06
9.99779e-06
9.99787e-06
9.99791e-06
9.99792e-06
9.99802e-06
9.9983e-06
9.99885e-06
9.99951e-06
1.00001e-05
1.00003e-05
1.00001e-05
9.99937e-06
9.99839e-06
9.9981e-06
9.99774e-06
9.99753e-06
9.99736e-06
9.99727e-06
9.99725e-06
9.99723e-06
9.99724e-06
9.99733e-06
9.99765e-06
9.99806e-06
9.99858e-06
9.99911e-06
9.99959e-06
1e-05
1.00003e-05
1.00005e-05
1.00005e-05
1.00005e-05
1.00003e-05
9.99997e-06
9.99961e-06
9.99928e-06
9.99898e-06
9.99882e-06
9.99885e-06
9.99912e-06
9.99963e-06
1.00003e-05
1.00011e-05
1.00019e-05
1.00024e-05
1.00026e-05
1.00025e-05
1.00022e-05
1.00015e-05
1.00008e-05
9.99995e-06
9.99918e-06
9.99842e-06
9.99783e-06
9.99748e-06
9.99755e-06
9.99798e-06
9.99868e-06
9.99951e-06
1.00003e-05
1.00009e-05
1.00012e-05
1.00013e-05
1.00011e-05
1.00008e-05
1.00005e-05
1.00002e-05
1.00001e-05
1.00001e-05
1.00001e-05
1.00002e-05
1.00002e-05
1.00002e-05
1.00001e-05
9.99987e-06
9.99947e-06
9.99898e-06
9.99856e-06
9.99831e-06
9.99834e-06
9.9986e-06
9.99905e-06
9.99963e-06
1.00003e-05
1.00008e-05
1.00012e-05
1.00013e-05
1.00013e-05
1.00012e-05
1.0001e-05
1.00009e-05
1.00006e-05
1.00003e-05
9.9999e-06
9.99971e-06
9.99966e-06
9.99972e-06
9.9998e-06
9.99991e-06
1e-05
1e-05
9.99997e-06
9.99995e-06
9.99993e-06
9.99989e-06
9.99979e-06
9.99972e-06
9.99968e-06
9.9996e-06
9.9995e-06
9.99944e-06
9.99936e-06
9.99934e-06
9.99936e-06
9.9995e-06
9.99967e-06
9.99987e-06
1e-05
1.00002e-05
1.00003e-05
1.00003e-05
1.00002e-05
1e-05
9.99988e-06
9.99969e-06
9.99949e-06
9.99939e-06
9.99946e-06
9.99964e-06
9.99983e-06
9.99998e-06
1e-05
1e-05
1e-05
9.99998e-06
9.99997e-06
9.99996e-06
9.9999e-06
9.99988e-06
9.99985e-06
9.99983e-06
9.9998e-06
9.99991e-06
1.00002e-05
1.00006e-05
1.0001e-05
1.00016e-05
1.00022e-05
1.00025e-05
1.00023e-05
1.00011e-05
9.99856e-06
9.99424e-06
9.989e-06
9.98325e-06
9.97959e-06
9.98048e-06
9.98793e-06
1.00053e-05
1.00302e-05
1.00658e-05
1.01019e-05
1.01414e-05
1.0168e-05
1.01771e-05
1.01601e-05
1.01099e-05
1.00308e-05
9.90422e-06
9.75952e-06
9.56095e-06
9.36872e-06
9.15454e-06
8.98794e-06
8.83253e-06
8.75999e-06
8.77609e-06
8.87059e-06
9.08934e-06
9.37909e-06
9.88588e-06
1.04213e-05
1.12295e-05
1.20157e-05
1.31161e-05
1.41495e-05
1.55731e-05
1.67825e-05
1.80362e-05
1.94089e-05
2.09113e-05
2.23733e-05
2.38731e-05
2.54026e-05
2.70096e-05
2.86637e-05
3.02268e-05
3.1907e-05
3.3671e-05
3.54435e-05
3.71161e-05
3.88899e-05
4.10335e-05
4.28747e-05
4.46491e-05
4.6276e-05
4.8124e-05
4.99334e-05
5.15874e-05
5.3295e-05
5.49674e-05
5.66073e-05
5.80773e-05
5.95987e-05
6.11704e-05
6.26168e-05
6.41754e-05
6.55157e-05
6.70033e-05
6.8439e-05
6.96921e-05
7.0939e-05
7.22067e-05
7.33029e-05
7.45019e-05
7.54613e-05
7.6583e-05
7.76295e-05
7.84796e-05
7.93042e-05
8.01132e-05
8.06905e-05
8.13081e-05
8.16723e-05
8.21616e-05
8.26251e-05
8.29923e-05
8.34139e-05
8.39526e-05
8.44662e-05
8.48375e-05
8.48703e-05
8.58211e-05
8.62146e-05
8.64895e-05
8.67574e-05
8.70875e-05
8.7398e-05
8.75917e-05
8.75731e-05
8.8393e-05
8.87733e-05
8.90742e-05
8.93547e-05
8.96271e-05
8.97717e-05
8.97503e-05
8.96078e-05
8.94051e-05
8.90788e-05
8.8665e-05
8.82096e-05
8.77656e-05
8.72473e-05
8.66536e-05
8.59616e-05
8.52303e-05
8.43954e-05
8.35183e-05
8.25502e-05
8.15292e-05
8.04048e-05
7.92524e-05
7.80397e-05
7.68777e-05
7.57168e-05
7.46303e-05
7.34394e-05
7.22349e-05
7.10166e-05
6.99143e-05
6.89573e-05
6.83455e-05
6.79058e-05
6.70663e-05
6.56729e-05
6.40639e-05
6.25684e-05
6.13221e-05
6.03806e-05
5.96359e-05
5.90448e-05
5.86747e-05
5.84626e-05
5.80176e-05
5.75971e-05
5.70986e-05
5.64667e-05
5.58601e-05
5.57373e-05
5.59235e-05
5.64713e-05
5.7328e-05
5.84834e-05
5.99193e-05
6.17493e-05
6.35841e-05
6.55817e-05
6.7577e-05
6.99218e-05
7.20252e-05
7.42535e-05
7.62934e-05
7.87192e-05
8.08225e-05
8.35595e-05
8.59976e-05
8.87971e-05
9.19609e-05
9.55496e-05
9.82967e-05
0.000103204
0.000108241
0.000112322
0.000114721
0.000115942
0.00011412
0.000108681
0.000101419
9.18796e-05
8.37923e-05
8.27023e-05
0.000101159
0.000166017
0.000242812
0.000279576
0.000307165
0.000322699
0.000342454
0.000352603
0.000380593
0.000345077
0.000408063
0.000349739
0.000346736
0.000352453
0.000333442
0.000329859
0.000370305
0.000399479
0.000339781
0.000361997
0.00034505
0.000333847
0.000349553
0.00034339
0.000350108
0.00034768
0.000359341
0.000343215
0.000367309
0.000340079
0.000335869
0.000341061
0.000335821
0.000326335
0.000330847
0.000365417
0.000377821
0.000351041
0.000351516
0.000348023
0.000344004
0.000344405
0.000347876
0.000348405
0.000354393
0.000342837
0.000360634
0.000337658
0.00032688
0.000334089
0.000326651
0.000340029
0.000365653
0.000322388
0.000325324
0.000330188
0.000334878
0.000390202
0.00036681
0.000356078
0.000342161
0.000351498
0.000342376
0.000342741
0.000361718
0.000356768
0.000345993
0.000348141
0.000350339
0.000372458
0.000366434