/*--------------------------------*- C++ -*----------------------------------*\
| =========                 |                                                 |
| \\      /  F ield         | foam-extend: Open Source CFD                    |
|  \\    /   O peration     | Version:     4.0                                |
|   \\  /    A nd           | Web:         http://www.foam-extend.org         |
|    \\/     M anipulation  |                                                 |
\*---------------------------------------------------------------------------*/
FoamFile
{
    version     2.0;
    format      ascii;
    class       regIOobject;
    location    "0.018/uniform";
    object      profilingInfo;
}
// * * * * * * * * * * * * * * * * * * * * * * * * * * * * * * * * * * * * * //

profilingInfo
(

    {
        id              11;
        parentId        10;
        description     "Foam::Time::writeObject - outputTime";
        calls           18;
        totalTime       24.5108;
        childTime       0;
        onStack         1;
    }

    {
        id              10;
        parentId        1;
        description     "Foam::Time::writeObject";
        calls           18;
        totalTime       24.511;
        childTime       24.5108;
        onStack         1;
    }

    {
        id              1;
        description     "application::main";
        calls           1;
        totalTime       17652.5;
        childTime       3943.7;
        onStack         1;
    }

    {
        id              3;
        parentId        2;
        description     "functionObjectList::read";
        calls           1;
        totalTime       4e-06;
        childTime       0;
        onStack         0;
    }

    {
        id              9;
        parentId        1;
        description     "functionObjects_.execute()";
        calls           1799;
        totalTime       0.006816;
        childTime       0;
        onStack         0;
    }

    {
        id              2;
        parentId        1;
        description     "functionObjects_.start()";
        calls           1;
        totalTime       1.3e-05;
        childTime       4e-06;
        onStack         0;
    }

    {
        id              4;
        parentId        1;
        description     "fvMatrix::solve_U";
        calls           54000;
        totalTime       2691.8;
        childTime       2322.41;
        onStack         0;
    }

    {
        id              7;
        parentId        1;
        description     "fvMatrix::solve_h";
        calls           54000;
        totalTime       1227.39;
        childTime       1155.92;
        onStack         0;
    }

    {
        id              5;
        parentId        4;
        description     "lduMatrix::solver_Ux";
        calls           54000;
        totalTime       1170.66;
        childTime       0;
        onStack         0;
    }

    {
        id              6;
        parentId        4;
        description     "lduMatrix::solver_Uy";
        calls           54000;
        totalTime       1151.74;
        childTime       0;
        onStack         0;
    }

    {
        id              8;
        parentId        7;
        description     "lduMatrix::solver_h";
        calls           54000;
        totalTime       1155.92;
        childTime       0;
        onStack         0;
    }
);


// ************************************************************************* //
