/*--------------------------------*- C++ -*----------------------------------*\
| =========                 |                                                 |
| \\      /  F ield         | foam-extend: Open Source CFD                    |
|  \\    /   O peration     | Version:     4.0                                |
|   \\  /    A nd           | Web:         http://www.foam-extend.org         |
|    \\/     M anipulation  |                                                 |
\*---------------------------------------------------------------------------*/
FoamFile
{
    version     2.0;
    format      ascii;
    class       volScalarField;
    location    "0.012";
    object      h;
}
// * * * * * * * * * * * * * * * * * * * * * * * * * * * * * * * * * * * * * //

dimensions      [0 1 0 0 0 0 0];

internalField   nonuniform List<scalar> 
176451
(
1.00055e-05
9.99783e-06
9.99611e-06
9.99722e-06
9.99883e-06
1.00019e-05
9.99698e-06
9.99907e-06
1.00019e-05
1.00006e-05
1.00022e-05
1.00057e-05
1.00004e-05
9.99931e-06
9.99684e-06
9.99862e-06
1.00004e-05
9.99848e-06
1.00043e-05
9.99811e-06
1.00004e-05
1e-05
9.9991e-06
1.0002e-05
1.00027e-05
1.00022e-05
1.00014e-05
9.99889e-06
9.99828e-06
1.00015e-05
9.9989e-06
1.00006e-05
1.00008e-05
9.99737e-06
9.99637e-06
1.00033e-05
1.00045e-05
1.00017e-05
9.99785e-06
9.99987e-06
9.99659e-06
1.00028e-05
9.99597e-06
9.99983e-06
1.00014e-05
1.00006e-05
9.99992e-06
9.99997e-06
1.00005e-05
1.00042e-05
1.0003e-05
9.99638e-06
1.00001e-05
9.99881e-06
9.99902e-06
1.00015e-05
9.99986e-06
1.00008e-05
9.99764e-06
1.00024e-05
1.00024e-05
9.99867e-06
9.99488e-06
1.00003e-05
1.00004e-05
1.00041e-05
1.0001e-05
1.00018e-05
1.00018e-05
9.99844e-06
9.99823e-06
1.00009e-05
1.00009e-05
1.00023e-05
1.00034e-05
1.0001e-05
1.00037e-05
1.00012e-05
9.99881e-06
9.99462e-06
9.99685e-06
1.00023e-05
9.99812e-06
9.99446e-06
1.00029e-05
1.00007e-05
9.99753e-06
1.0003e-05
1.00029e-05
1.00004e-05
1.00013e-05
9.99778e-06
1.00044e-05
9.99918e-06
1.00003e-05
9.99603e-06
9.99672e-06
1.00002e-05
1.00069e-05
9.99624e-06
1.00017e-05
9.99927e-06
1.00037e-05
9.99587e-06
1.00009e-05
9.99932e-06
1.00015e-05
9.99936e-06
1.00019e-05
1.00031e-05
1.00042e-05
1.00006e-05
1.00029e-05
9.9988e-06
1.00033e-05
1.00042e-05
1.00032e-05
9.99855e-06
1.00037e-05
1.00019e-05
1.00016e-05
9.99499e-06
9.9981e-06
9.99757e-06
1.00001e-05
9.99926e-06
9.9987e-06
1.00021e-05
9.99875e-06
1.00013e-05
1.0003e-05
1.00003e-05
9.9993e-06
1.00031e-05
1.00031e-05
9.99647e-06
1.00011e-05
9.99945e-06
1.00007e-05
1.00012e-05
1.00015e-05
9.99473e-06
1.00029e-05
1.0003e-05
9.99866e-06
9.99776e-06
9.99861e-06
1.00026e-05
9.99782e-06
9.99718e-06
1.00041e-05
1.00002e-05
9.99689e-06
1.00016e-05
9.9975e-06
1.00004e-05
9.99816e-06
1.00025e-05
1.00011e-05
1.00006e-05
1.00007e-05
1.00002e-05
9.99512e-06
9.99897e-06
9.99935e-06
1.0001e-05
1.00028e-05
9.99973e-06
9.9975e-06
1.00027e-05
9.99758e-06
9.99717e-06
1.00054e-05
1.00006e-05
9.99872e-06
9.99714e-06
1.0003e-05
9.99716e-06
9.99858e-06
1.0003e-05
1.00001e-05
1.0002e-05
9.99847e-06
1.00003e-05
9.99891e-06
9.99996e-06
9.99954e-06
1.00014e-05
1.00062e-05
1.00045e-05
1.00002e-05
9.99523e-06
9.9902e-06
9.98607e-06
9.98356e-06
9.98325e-06
9.98498e-06
9.98802e-06
9.9917e-06
9.99517e-06
9.99808e-06
1.00002e-05
1.00017e-05
1.00029e-05
1.00039e-05
1.00049e-05
1.00058e-05
1.00065e-05
1.00067e-05
1.00063e-05
1.00049e-05
1.00028e-05
9.99994e-06
9.99674e-06
9.99365e-06
9.99123e-06
9.98979e-06
9.98945e-06
9.99021e-06
9.99179e-06
9.99384e-06
9.99584e-06
9.99762e-06
9.99903e-06
1.00002e-05
1.00011e-05
1.0002e-05
1.00029e-05
1.00037e-05
1.0004e-05
1.00035e-05
1.00023e-05
1.00005e-05
9.9985e-06
9.99661e-06
9.99532e-06
9.99473e-06
9.99477e-06
9.99534e-06
9.99611e-06
9.99696e-06
9.99781e-06
9.99867e-06
9.99965e-06
1.00007e-05
1.00017e-05
1.00026e-05
1.00032e-05
1.00035e-05
1.00037e-05
1.00038e-05
1.00039e-05
1.00041e-05
1.00043e-05
1.00045e-05
1.00043e-05
1.00036e-05
1.00022e-05
1.00004e-05
9.99831e-06
9.99617e-06
9.99426e-06
9.99302e-06
9.99246e-06
9.9926e-06
9.99329e-06
9.99433e-06
9.99548e-06
9.99646e-06
9.99722e-06
9.99782e-06
9.99836e-06
9.99902e-06
9.99994e-06
1.0001e-05
1.00021e-05
1.00026e-05
1.00026e-05
1.00019e-05
1.00006e-05
9.99907e-06
9.99746e-06
9.99619e-06
9.99522e-06
9.99455e-06
9.99408e-06
9.99382e-06
9.99354e-06
9.99315e-06
9.99262e-06
9.99209e-06
9.99155e-06
9.99111e-06
9.99085e-06
9.99087e-06
9.99108e-06
9.99143e-06
9.99194e-06
9.99259e-06
9.99323e-06
9.99374e-06
9.99407e-06
9.9942e-06
9.99412e-06
9.99394e-06
9.99389e-06
9.99422e-06
9.99497e-06
9.9961e-06
9.99755e-06
9.99903e-06
1.00002e-05
1.00007e-05
1.00006e-05
9.99994e-06
9.999e-06
9.99814e-06
9.99769e-06
9.99791e-06
9.99865e-06
9.99969e-06
1.00009e-05
1.00021e-05
1.00031e-05
1.00039e-05
1.00046e-05
1.00051e-05
1.00055e-05
1.00058e-05
1.0006e-05
1.00061e-05
1.00063e-05
1.00065e-05
1.00069e-05
1.00074e-05
1.00079e-05
1.00085e-05
1.00088e-05
1.00086e-05
1.00076e-05
1.00058e-05
1.00032e-05
1e-05
9.99657e-06
9.99329e-06
9.9904e-06
9.98807e-06
9.98641e-06
9.98548e-06
9.98523e-06
9.98556e-06
9.98646e-06
9.98784e-06
9.98972e-06
9.99201e-06
9.99474e-06
9.99783e-06
1.00012e-05
1.00042e-05
1.00066e-05
1.00079e-05
1.00078e-05
1.00066e-05
1.00045e-05
1.00022e-05
1.00002e-05
9.99871e-06
9.99798e-06
9.9979e-06
9.99827e-06
9.99876e-06
9.99922e-06
9.99953e-06
9.99968e-06
9.99967e-06
9.99965e-06
9.99976e-06
1.00001e-05
1.00005e-05
1.00011e-05
1.00018e-05
1.00026e-05
1.00032e-05
1.00037e-05
1.0004e-05
1.00043e-05
1.00043e-05
1.00041e-05
1.00038e-05
1.00034e-05
1.00028e-05
1.00022e-05
1.00014e-05
1.00006e-05
9.99974e-06
9.99882e-06
9.99798e-06
9.99728e-06
9.99671e-06
9.99634e-06
9.99621e-06
9.99635e-06
9.99674e-06
9.99741e-06
9.9983e-06
9.99925e-06
9.99994e-06
1.00002e-05
9.99994e-06
9.9992e-06
9.99812e-06
9.99701e-06
9.99616e-06
9.99572e-06
9.9957e-06
9.99612e-06
9.99691e-06
9.99797e-06
9.99908e-06
1.00001e-05
1.00008e-05
1.00012e-05
1.00011e-05
1.00006e-05
9.99999e-06
9.99942e-06
9.99907e-06
9.99908e-06
9.99951e-06
1.00003e-05
1.00012e-05
1.00021e-05
1.0003e-05
1.00036e-05
1.00037e-05
1.00034e-05
1.00027e-05
1.00017e-05
1.00003e-05
9.99903e-06
9.99798e-06
9.99738e-06
9.99713e-06
9.99726e-06
9.99762e-06
9.998e-06
9.99829e-06
9.99856e-06
9.99877e-06
9.9988e-06
9.99846e-06
9.9977e-06
9.99635e-06
9.99453e-06
9.99226e-06
9.99019e-06
9.98872e-06
9.98821e-06
9.9887e-06
9.99027e-06
9.99273e-06
9.99567e-06
9.99898e-06
1.00021e-05
1.0005e-05
1.00073e-05
1.00092e-05
1.00103e-05
1.00109e-05
1.0011e-05
1.00107e-05
1.00101e-05
1.00095e-05
1.00089e-05
1.00082e-05
1.00076e-05
1.00069e-05
1.00063e-05
1.00055e-05
1.00048e-05
1.00041e-05
1.00036e-05
1.00034e-05
1.00035e-05
1.00037e-05
1.00039e-05
1.00038e-05
1.00034e-05
1.00027e-05
1.00019e-05
1.00009e-05
1.00001e-05
9.99949e-06
9.99905e-06
9.99873e-06
9.99861e-06
9.99863e-06
9.99875e-06
9.99898e-06
9.99939e-06
1e-05
1.00009e-05
1.00019e-05
1.0003e-05
1.00038e-05
1.00044e-05
1.00044e-05
1.0004e-05
1.00032e-05
1.00022e-05
1.0001e-05
1e-05
9.99915e-06
9.99836e-06
9.99754e-06
9.99689e-06
9.99642e-06
9.99616e-06
9.99619e-06
9.99667e-06
9.99757e-06
9.99875e-06
1.00001e-05
1.00013e-05
1.00022e-05
1.00027e-05
1.00026e-05
1.00019e-05
1.00006e-05
9.99891e-06
9.99704e-06
9.99544e-06
9.99437e-06
9.99405e-06
9.99443e-06
9.99531e-06
9.99648e-06
9.99771e-06
9.99883e-06
9.99964e-06
1.00001e-05
1.00003e-05
1.00003e-05
1.00001e-05
9.99993e-06
1.00002e-05
1.0001e-05
1.00024e-05
1.00042e-05
1.00059e-05
1.00073e-05
1.00077e-05
1.00071e-05
1.00056e-05
1.00035e-05
1.00013e-05
9.99934e-06
9.99797e-06
9.99717e-06
9.99682e-06
9.99684e-06
9.99721e-06
9.99799e-06
9.99913e-06
1.00006e-05
1.00023e-05
1.00039e-05
1.00049e-05
1.00051e-05
1.00046e-05
1.00034e-05
1.00019e-05
1.00003e-05
9.99911e-06
9.99821e-06
9.99755e-06
9.99705e-06
9.99661e-06
9.99613e-06
9.99555e-06
9.99492e-06
9.99437e-06
9.994e-06
9.9939e-06
9.99418e-06
9.99487e-06
9.99587e-06
9.99692e-06
9.99786e-06
9.99852e-06
9.99884e-06
9.99878e-06
9.99849e-06
9.99813e-06
9.9978e-06
9.99755e-06
9.99741e-06
9.99745e-06
9.99766e-06
9.998e-06
9.99854e-06
9.99931e-06
1.00003e-05
1.00013e-05
1.00024e-05
1.00034e-05
1.00042e-05
1.00049e-05
1.00054e-05
1.00057e-05
1.00061e-05
1.00062e-05
1.00062e-05
1.00059e-05
1.00051e-05
1.0004e-05
1.00023e-05
1.00006e-05
9.9988e-06
9.99738e-06
9.99659e-06
9.99668e-06
9.9977e-06
9.99942e-06
1.00016e-05
1.00039e-05
1.00059e-05
1.00071e-05
1.00075e-05
1.00068e-05
1.00051e-05
1.00028e-05
1.00002e-05
9.99782e-06
9.99603e-06
9.99485e-06
9.99452e-06
9.99479e-06
9.99538e-06
9.99583e-06
9.99583e-06
9.99524e-06
9.9942e-06
9.9929e-06
9.99211e-06
9.99228e-06
9.99368e-06
9.9963e-06
9.9995e-06
1.00028e-05
1.00054e-05
1.00068e-05
1.0007e-05
1.00061e-05
1.00047e-05
1.00027e-05
1.00009e-05
9.99914e-06
9.99773e-06
9.99644e-06
9.99554e-06
9.99506e-06
9.99509e-06
9.99562e-06
9.99663e-06
9.9981e-06
9.99975e-06
1.00015e-05
1.0003e-05
1.00042e-05
1.00049e-05
1.00052e-05
1.00049e-05
1.00042e-05
1.00033e-05
1.00025e-05
1.0002e-05
1.00017e-05
1.00018e-05
1.00019e-05
1.0002e-05
1.00018e-05
1.00016e-05
1.00013e-05
1.00013e-05
1.00016e-05
1.00021e-05
1.00028e-05
1.00036e-05
1.00044e-05
1.00051e-05
1.00055e-05
1.00059e-05
1.0006e-05
1.00059e-05
1.00053e-05
1.00042e-05
1.00027e-05
1.0001e-05
9.99937e-06
9.99812e-06
9.99757e-06
9.99769e-06
9.9983e-06
9.9991e-06
9.99979e-06
1.00001e-05
9.9999e-06
9.9994e-06
9.9987e-06
9.99812e-06
9.99774e-06
9.99769e-06
9.99792e-06
9.99834e-06
9.99892e-06
9.99965e-06
1.00005e-05
1.00012e-05
1.00018e-05
1.00021e-05
1.00019e-05
1.00013e-05
1.00003e-05
9.99938e-06
9.99856e-06
9.99827e-06
9.99847e-06
9.9991e-06
9.99995e-06
1.00007e-05
1.00011e-05
1.00008e-05
9.99997e-06
9.99881e-06
9.99759e-06
9.99657e-06
9.99599e-06
9.99599e-06
9.99655e-06
9.9975e-06
9.99871e-06
9.99998e-06
1.00011e-05
1.00019e-05
1.00021e-05
1.00019e-05
1.00012e-05
1.00001e-05
9.99887e-06
9.99793e-06
9.99752e-06
9.9978e-06
9.99889e-06
1.00006e-05
1.00028e-05
1.0005e-05
1.00068e-05
1.00079e-05
1.00086e-05
1.00087e-05
1.00086e-05
1.00086e-05
1.00087e-05
1.00088e-05
1.00086e-05
1.00078e-05
1.00061e-05
1.00034e-05
9.99977e-06
9.99596e-06
9.99241e-06
9.9898e-06
9.98874e-06
9.98957e-06
9.99223e-06
9.99615e-06
1.00007e-05
1.00047e-05
1.00078e-05
1.00091e-05
1.00087e-05
1.00069e-05
1.0004e-05
1.00007e-05
9.9975e-06
9.99483e-06
9.99278e-06
9.99136e-06
9.99052e-06
9.99028e-06
9.99066e-06
9.99168e-06
9.99344e-06
9.99588e-06
9.99884e-06
1.00018e-05
1.00043e-05
1.0006e-05
1.00068e-05
1.00065e-05
1.00054e-05
1.00039e-05
1.00023e-05
1.00008e-05
9.99955e-06
9.99858e-06
9.99783e-06
9.99721e-06
9.99666e-06
9.99619e-06
9.99578e-06
9.99541e-06
9.9952e-06
9.99535e-06
9.99598e-06
9.99711e-06
9.99872e-06
1.00006e-05
1.00025e-05
1.0004e-05
1.0005e-05
1.00052e-05
1.00047e-05
1.00036e-05
1.00023e-05
1.00011e-05
1.00002e-05
9.99956e-06
9.99931e-06
9.9992e-06
9.99904e-06
9.99856e-06
9.99776e-06
9.99657e-06
9.99529e-06
9.99394e-06
9.99303e-06
9.99271e-06
9.99307e-06
9.9941e-06
9.99567e-06
9.99761e-06
9.99955e-06
1.00013e-05
1.00024e-05
1.0003e-05
1.00029e-05
1.00023e-05
1.00014e-05
1.00004e-05
9.99956e-06
9.99886e-06
9.99847e-06
9.99833e-06
9.99839e-06
9.9985e-06
9.99866e-06
9.99883e-06
9.99897e-06
9.99903e-06
9.99911e-06
9.99932e-06
9.99968e-06
1.00001e-05
1.00007e-05
1.00015e-05
1.00023e-05
1.00031e-05
1.00038e-05
1.00041e-05
1.00041e-05
1.00035e-05
1.00026e-05
1.00013e-05
9.9999e-06
9.99853e-06
9.9974e-06
9.99665e-06
9.99632e-06
9.99635e-06
9.99673e-06
9.99737e-06
9.99808e-06
9.99873e-06
9.99918e-06
9.99935e-06
9.9992e-06
9.99881e-06
9.99837e-06
9.99797e-06
9.99772e-06
9.9977e-06
9.99801e-06
9.99864e-06
9.99949e-06
1.00004e-05
1.00013e-05
1.00018e-05
1.0002e-05
1.00016e-05
1.00007e-05
9.99941e-06
9.99802e-06
9.99682e-06
9.99614e-06
9.9962e-06
9.99701e-06
9.99842e-06
1.00002e-05
1.00019e-05
1.00034e-05
1.00042e-05
1.00043e-05
1.00039e-05
1.00032e-05
1.00025e-05
1.00021e-05
1.0002e-05
1.00025e-05
1.00032e-05
1.00041e-05
1.00047e-05
1.0005e-05
1.0005e-05
1.00045e-05
1.00037e-05
1.00028e-05
1.0002e-05
1.00013e-05
1.00008e-05
1.00005e-05
1.00003e-05
1.00002e-05
1.00001e-05
9.99994e-06
9.99967e-06
9.99915e-06
9.99839e-06
9.99749e-06
9.99655e-06
9.99568e-06
9.99503e-06
9.9948e-06
9.99504e-06
9.9957e-06
9.99675e-06
9.99804e-06
9.9994e-06
1.00005e-05
1.00013e-05
1.00015e-05
1.00015e-05
1.00011e-05
1.00007e-05
1.00006e-05
1.00009e-05
1.00015e-05
1.00025e-05
1.00035e-05
1.00043e-05
1.00048e-05
1.00049e-05
1.00047e-05
1.00043e-05
1.00038e-05
1.00035e-05
1.00033e-05
1.00032e-05
1.00031e-05
1.00027e-05
1.00021e-05
1.00011e-05
9.99969e-06
9.99797e-06
9.99622e-06
9.99463e-06
9.99346e-06
9.9929e-06
9.99303e-06
9.99374e-06
9.99477e-06
9.99592e-06
9.99697e-06
9.99785e-06
9.99851e-06
9.99907e-06
9.9997e-06
1.00005e-05
1.00014e-05
1.00023e-05
1.0003e-05
1.00034e-05
1.00033e-05
1.00028e-05
1.00019e-05
1.0001e-05
1.00001e-05
9.9995e-06
9.99932e-06
9.99951e-06
9.99986e-06
1.00002e-05
1.00006e-05
1.00008e-05
1.00008e-05
1.00008e-05
1.00008e-05
1.0001e-05
1.00014e-05
1.00019e-05
1.00025e-05
1.00031e-05
1.00035e-05
1.00037e-05
1.00036e-05
1.00032e-05
1.00024e-05
1.00014e-05
1.00004e-05
9.99951e-06
9.99894e-06
9.99894e-06
9.99949e-06
1.00005e-05
1.00016e-05
1.00026e-05
1.00032e-05
1.00031e-05
1.00021e-05
1.00006e-05
9.99869e-06
9.99684e-06
9.99519e-06
9.99423e-06
9.99397e-06
9.99433e-06
9.99508e-06
9.996e-06
9.99695e-06
9.99782e-06
9.99861e-06
9.99936e-06
1.00002e-05
1.0001e-05
1.00019e-05
1.00028e-05
1.00035e-05
1.0004e-05
1.00042e-05
1.0004e-05
1.00034e-05
1.00026e-05
1.00014e-05
1.00002e-05
9.99887e-06
9.99765e-06
9.99655e-06
9.99593e-06
9.99575e-06
9.99607e-06
9.99679e-06
9.99778e-06
9.99886e-06
9.99977e-06
1.00004e-05
1.00006e-05
1.00004e-05
1.00002e-05
9.99989e-06
9.99985e-06
1.00001e-05
1.00007e-05
1.00015e-05
1.00023e-05
1.00029e-05
1.00033e-05
1.00033e-05
1.00031e-05
1.00025e-05
1.00018e-05
1.00009e-05
1.00001e-05
9.99919e-06
9.99844e-06
9.99771e-06
9.99725e-06
9.99696e-06
9.997e-06
9.99727e-06
9.99776e-06
9.99834e-06
9.99891e-06
9.99939e-06
9.99974e-06
9.99996e-06
1.00001e-05
1.00003e-05
1.00006e-05
1.0001e-05
1.00015e-05
1.00019e-05
1.00022e-05
1.00022e-05
1.0002e-05
1.00015e-05
1.00009e-05
1.00002e-05
9.9996e-06
9.99911e-06
9.9989e-06
9.9989e-06
9.99908e-06
9.99935e-06
9.99969e-06
9.99996e-06
1.00001e-05
1.00002e-05
1.00002e-05
1.00001e-05
1.00002e-05
1.00004e-05
1.00006e-05
1.00009e-05
1.00013e-05
1.00016e-05
1.00018e-05
1.00017e-05
1.00015e-05
1.00011e-05
1.00006e-05
1e-05
9.99957e-06
9.99927e-06
9.99917e-06
9.99937e-06
9.99991e-06
1.00008e-05
1.00018e-05
1.00028e-05
1.00036e-05
1.00041e-05
1.00041e-05
1.00035e-05
1.00024e-05
1.00008e-05
9.99907e-06
9.99732e-06
9.99591e-06
9.99501e-06
9.9947e-06
9.99503e-06
9.99591e-06
9.99718e-06
9.99856e-06
9.99988e-06
1.0001e-05
1.00018e-05
1.00022e-05
1.00024e-05
1.00024e-05
1.00023e-05
1.0002e-05
1.00016e-05
1.0001e-05
1.00002e-05
9.99915e-06
9.99797e-06
9.99687e-06
9.99601e-06
9.99554e-06
9.99562e-06
9.99635e-06
9.99768e-06
9.9994e-06
1.00013e-05
1.00032e-05
1.00048e-05
1.00058e-05
1.00061e-05
1.00057e-05
1.00049e-05
1.00036e-05
1.00021e-05
1.00007e-05
9.99948e-06
9.99858e-06
9.99804e-06
9.99793e-06
9.99815e-06
9.99857e-06
9.99917e-06
9.99991e-06
1.00007e-05
1.00013e-05
1.00016e-05
1.00016e-05
1.00012e-05
1.00005e-05
9.99966e-06
9.99897e-06
9.99854e-06
9.99838e-06
9.99849e-06
9.99877e-06
9.99908e-06
9.99921e-06
9.99915e-06
9.99898e-06
9.99874e-06
9.99843e-06
9.99814e-06
9.99798e-06
9.99801e-06
9.99822e-06
9.99856e-06
9.99906e-06
9.99965e-06
1.00002e-05
1.00008e-05
1.00012e-05
1.00015e-05
1.00016e-05
1.00016e-05
1.00014e-05
1.00011e-05
1.00007e-05
1.00003e-05
1e-05
9.99992e-06
9.99988e-06
9.99995e-06
1.00001e-05
1.00003e-05
1.00005e-05
1.00005e-05
1.00006e-05
1.00006e-05
1.00006e-05
1.00007e-05
1.00007e-05
1.00008e-05
1.00008e-05
1.00009e-05
1.00008e-05
1.00007e-05
1.00006e-05
1.00004e-05
1.00003e-05
1.00002e-05
9.99999e-06
9.99985e-06
9.99976e-06
9.99976e-06
9.99974e-06
9.99974e-06
9.99972e-06
9.99973e-06
9.9997e-06
9.99967e-06
9.9996e-06
9.99962e-06
9.99972e-06
9.99992e-06
1.00002e-05
1.00004e-05
1.00005e-05
1.00006e-05
1.00005e-05
1.00005e-05
1.00003e-05
1.00001e-05
9.99988e-06
9.99971e-06
9.99956e-06
9.99949e-06
9.99944e-06
9.99947e-06
9.9995e-06
9.99956e-06
9.99959e-06
9.99963e-06
9.99962e-06
9.99965e-06
9.99968e-06
9.9998e-06
9.99991e-06
1.00001e-05
1.00002e-05
1.00005e-05
1.00007e-05
1.0001e-05
1.00013e-05
1.00016e-05
1.00016e-05
1.00015e-05
1.00012e-05
1.00008e-05
1.00001e-05
9.99946e-06
9.99889e-06
9.9985e-06
9.99829e-06
9.99835e-06
9.99862e-06
9.99905e-06
9.99955e-06
1.00001e-05
1.00005e-05
1.00009e-05
1.00011e-05
1.00012e-05
1.00011e-05
1.0001e-05
1.00008e-05
1.00005e-05
1.00001e-05
9.99973e-06
9.99948e-06
9.99932e-06
9.99931e-06
9.99949e-06
9.99979e-06
1.00001e-05
1.00003e-05
1.00005e-05
1.00006e-05
1.00007e-05
1.00007e-05
1.00009e-05
1.00011e-05
1.00013e-05
1.00014e-05
1.00015e-05
1.00014e-05
1.00011e-05
1.00006e-05
1.00001e-05
9.99958e-06
9.9991e-06
9.99874e-06
9.99858e-06
9.99862e-06
9.9988e-06
9.99912e-06
9.99954e-06
1e-05
1.00004e-05
1.00006e-05
1.00007e-05
1.00006e-05
1.00004e-05
1.00001e-05
9.99986e-06
9.99969e-06
9.99959e-06
9.9996e-06
9.99973e-06
9.99998e-06
1.00002e-05
1.00005e-05
1.00007e-05
1.00009e-05
1.00009e-05
1.00008e-05
1.00007e-05
1.00004e-05
1.00001e-05
9.99969e-06
9.9993e-06
9.99894e-06
9.99859e-06
9.99833e-06
9.99827e-06
9.99841e-06
9.99865e-06
9.999e-06
9.99946e-06
1e-05
1.00005e-05
1.0001e-05
1.00013e-05
1.00015e-05
1.00014e-05
1.00012e-05
1.00008e-05
1.00004e-05
1e-05
9.99972e-06
9.99955e-06
9.99951e-06
9.9995e-06
9.99949e-06
9.99947e-06
9.9994e-06
9.99922e-06
9.99895e-06
9.9987e-06
9.99851e-06
9.99839e-06
9.99839e-06
9.99853e-06
9.9988e-06
9.99907e-06
9.99933e-06
9.99956e-06
9.99974e-06
9.99983e-06
9.99988e-06
9.99992e-06
9.99996e-06
1e-05
1.00001e-05
1.00002e-05
1.00003e-05
1.00003e-05
1.00003e-05
1.00003e-05
1.00003e-05
1.00003e-05
1.00003e-05
1.00004e-05
1.00004e-05
1.00003e-05
1.00002e-05
1e-05
9.99991e-06
9.99972e-06
9.99956e-06
9.99942e-06
9.99943e-06
9.99951e-06
9.99966e-06
9.99983e-06
1.00001e-05
1.00002e-05
1.00003e-05
1.00003e-05
1.00003e-05
1.00002e-05
1.00001e-05
9.99998e-06
9.9999e-06
9.99981e-06
9.99978e-06
9.99978e-06
9.99987e-06
9.99995e-06
1.00001e-05
1.00002e-05
1.00003e-05
1.00004e-05
1.00005e-05
1.00004e-05
1.00004e-05
1.00003e-05
1.00001e-05
1e-05
9.99996e-06
9.99998e-06
1.00001e-05
1.00002e-05
1.00004e-05
1.00004e-05
1.00004e-05
1.00004e-05
1.00003e-05
1.00002e-05
1e-05
9.99985e-06
9.99976e-06
9.9997e-06
9.99976e-06
9.99985e-06
1e-05
1.00001e-05
1.00002e-05
1.00001e-05
1.00001e-05
9.99997e-06
9.9999e-06
9.99986e-06
9.99987e-06
9.99986e-06
9.99988e-06
9.99989e-06
9.99992e-06
9.99995e-06
1e-05
1.00001e-05
1.00001e-05
1.00001e-05
1.00001e-05
9.99996e-06
9.99984e-06
9.99967e-06
9.99961e-06
9.99967e-06
9.99985e-06
1.00002e-05
1.00006e-05
1.00011e-05
1.00015e-05
1.00018e-05
1.00017e-05
1.00011e-05
1.00001e-05
9.99865e-06
9.99647e-06
9.99384e-06
9.99088e-06
9.98751e-06
9.98425e-06
9.98143e-06
9.97937e-06
9.97843e-06
9.9789e-06
9.98099e-06
9.98498e-06
9.99199e-06
1.00012e-05
1.00127e-05
1.00266e-05
1.00444e-05
1.00641e-05
1.00855e-05
1.01084e-05
1.01336e-05
1.01573e-05
1.01772e-05
1.01898e-05
1.01884e-05
1.01675e-05
1.01209e-05
1.0044e-05
9.92403e-06
9.77305e-06
9.59712e-06
9.40649e-06
9.20154e-06
9.01662e-06
8.86789e-06
8.76504e-06
8.72087e-06
8.74265e-06
8.82771e-06
8.97302e-06
9.2117e-06
9.50133e-06
9.82912e-06
1.02107e-05
1.0718e-05
1.12786e-05
1.18851e-05
1.25679e-05
1.34103e-05
1.42866e-05
1.51637e-05
1.60493e-05
1.70221e-05
1.79485e-05
1.88194e-05
1.96877e-05
2.0682e-05
2.17191e-05
2.28277e-05
2.40557e-05
2.55461e-05
2.71558e-05
2.88597e-05
3.06378e-05
3.25876e-05
3.45255e-05
3.64112e-05
3.82215e-05
4.0083e-05
4.18273e-05
4.34395e-05
4.4928e-05
4.64176e-05
4.77536e-05
4.89258e-05
4.99562e-05
5.09647e-05
5.18373e-05
5.25676e-05
5.32001e-05
5.38132e-05
5.43155e-05
5.46867e-05
5.49623e-05
5.52178e-05
5.53698e-05
5.54054e-05
5.53693e-05
5.53133e-05
5.518e-05
5.49487e-05
5.46572e-05
5.43341e-05
5.39347e-05
5.34354e-05
5.28937e-05
5.23247e-05
5.17101e-05
5.10045e-05
5.03156e-05
4.95614e-05
4.87365e-05
4.78809e-05
4.69616e-05
4.59825e-05
4.48993e-05
4.37969e-05
4.25677e-05
4.13456e-05
4.0033e-05
3.87644e-05
3.73853e-05
3.59969e-05
3.44117e-05
3.27071e-05
3.06346e-05
2.83637e-05
2.56729e-05
2.29036e-05
2.01027e-05
1.78969e-05
1.65343e-05
1.67586e-05
1.91103e-05
2.29544e-05
2.79008e-05
3.27229e-05
3.6359e-05
3.64369e-05
3.21217e-05
2.57981e-05
2.26981e-05
3.20052e-05
4.80691e-05
5.94778e-05
6.65501e-05
7.02066e-05
7.2512e-05
7.38505e-05
7.43883e-05
7.40506e-05
7.30947e-05
7.21403e-05
7.11397e-05
7.01536e-05
6.90898e-05
6.82175e-05
6.76116e-05
6.72876e-05
6.7047e-05
6.71161e-05
6.73897e-05
6.77325e-05
6.81846e-05
6.85423e-05
6.88872e-05
6.91701e-05
6.93655e-05
6.94682e-05
6.94867e-05
6.94974e-05
6.94907e-05
6.93771e-05
6.92815e-05
6.91525e-05
6.90315e-05
6.88448e-05
6.87125e-05
6.85692e-05
6.84581e-05
6.83382e-05
6.83376e-05
6.8294e-05
6.82696e-05
6.83229e-05
6.83331e-05
6.83781e-05
6.84214e-05
6.84219e-05
6.84956e-05
6.84943e-05
6.85459e-05
6.85577e-05
6.85906e-05
6.8604e-05
6.85301e-05
6.85346e-05
6.84815e-05
6.84777e-05
6.84816e-05
6.85264e-05
6.85306e-05
6.85364e-05
6.85458e-05
6.85755e-05
6.86134e-05
6.87077e-05
6.87788e-05
6.88257e-05
6.88812e-05
6.89243e-05
6.89188e-05
6.89052e-05
6.89018e-05
6.88844e-05
6.88389e-05
6.88053e-05
6.88028e-05
6.88036e-05
6.87803e-05
6.877e-05
6.87881e-05
6.88045e-05
6.87858e-05
6.87733e-05
6.87833e-05
6.87889e-05
6.87612e-05
6.87467e-05
6.87653e-05
6.87883e-05
6.87834e-05
6.87943e-05
6.88347e-05
6.88654e-05
6.88495e-05
6.8827e-05
6.881e-05
6.87695e-05
6.86821e-05
6.85981e-05
6.8546e-05
6.8518e-05
6.84958e-05
6.85279e-05
6.86278e-05
6.87496e-05
6.884e-05
6.89243e-05
6.8998e-05
6.89998e-05
6.88814e-05
6.87082e-05
6.85171e-05
6.83161e-05
6.81081e-05
6.80152e-05
6.8108e-05
6.83724e-05
6.87366e-05
6.91857e-05
6.96506e-05
6.9939e-05
6.99082e-05
6.95815e-05
6.90022e-05
6.82181e-05
6.73469e-05
6.67281e-05
6.67681e-05
6.75972e-05
6.89964e-05
7.09092e-05
7.31375e-05
7.46673e-05
7.42804e-05
7.11081e-05
6.42074e-05
5.26623e-05
3.65709e-05
2.53546e-05
2.43564e-05
2.5878e-05
2.79136e-05
2.98368e-05
2.98355e-05
2.77748e-05
2.57619e-05
2.4528e-05
2.3152e-05
2.18543e-05
2.11661e-05
2.11582e-05
2.14387e-05
2.18868e-05
2.26889e-05
2.38168e-05
2.5062e-05
2.62465e-05
2.7503e-05
2.89115e-05
3.04633e-05
3.19885e-05
3.34569e-05
3.4798e-05
3.60309e-05
3.72016e-05
3.83016e-05
3.93522e-05
4.03923e-05
4.13989e-05
4.23787e-05
4.33939e-05
4.43015e-05
4.51364e-05
4.58523e-05
4.64769e-05
4.70304e-05
4.75431e-05
4.79713e-05
4.83772e-05
4.87196e-05
4.89544e-05
4.90545e-05
4.89898e-05
4.87665e-05
4.83487e-05
4.78209e-05
4.71483e-05
4.6433e-05
4.55673e-05
4.46399e-05
4.35988e-05
4.25691e-05
4.14299e-05
4.03566e-05
3.9284e-05
3.83639e-05
3.74654e-05
3.6709e-05
3.60495e-05
3.55561e-05
3.51148e-05
3.47604e-05
3.44334e-05
3.4167e-05
3.38138e-05
3.342e-05
3.29606e-05
3.25438e-05
3.20565e-05
3.15388e-05
3.12013e-05
3.06541e-05
3.01861e-05
2.96122e-05
2.91383e-05
2.8433e-05
2.77935e-05
2.7051e-05
2.62709e-05
2.54452e-05
2.45872e-05
2.37047e-05
2.26984e-05
2.1858e-05
2.09632e-05
2.00504e-05
1.91785e-05
1.8264e-05
1.73373e-05
1.64259e-05
1.54437e-05
1.45054e-05
1.36146e-05
1.27738e-05
1.20041e-05
1.12941e-05
1.06467e-05
1.01011e-05
9.6171e-06
9.21869e-06
8.95477e-06
8.77193e-06
8.67612e-06
8.66163e-06
8.71301e-06
8.81038e-06
8.94074e-06
9.09826e-06
9.25838e-06
9.42741e-06
9.59048e-06
9.73775e-06
9.87447e-06
9.98141e-06
1.00718e-05
1.01404e-05
1.01827e-05
1.02075e-05
1.02156e-05
1.02085e-05
1.0189e-05
1.01623e-05
1.01301e-05
1.00972e-05
1.00644e-05
1.00355e-05
1.00117e-05
9.993e-06
9.97926e-06
9.97142e-06
9.96841e-06
9.9691e-06
9.97264e-06
9.97793e-06
9.98395e-06
9.98995e-06
9.99553e-06
9.99998e-06
1.00032e-05
1.00052e-05
1.0006e-05
1.00058e-05
1.00049e-05
1.00033e-05
1.00015e-05
9.99961e-06
9.99798e-06
9.99677e-06
9.99613e-06
9.99617e-06
9.9968e-06
9.9977e-06
9.99864e-06
9.99946e-06
1.00001e-05
1.00004e-05
1.00005e-05
1.00007e-05
1.0001e-05
1.00013e-05
1.00016e-05
1.00019e-05
1.00019e-05
1.00016e-05
1.00009e-05
9.99994e-06
9.99888e-06
9.99787e-06
9.99712e-06
9.9969e-06
9.99734e-06
9.99833e-06
9.99971e-06
1.00012e-05
1.00024e-05
1.00032e-05
1.00032e-05
1.00027e-05
1.00018e-05
1.00009e-05
1e-05
9.99966e-06
9.99976e-06
1.00002e-05
1.00007e-05
1.00011e-05
1.00013e-05
1.00012e-05
1.00007e-05
1.00001e-05
9.99945e-06
9.99885e-06
9.9984e-06
9.99821e-06
9.99827e-06
9.99847e-06
9.99877e-06
9.99914e-06
9.99952e-06
9.99974e-06
9.9998e-06
9.99976e-06
9.99967e-06
9.99951e-06
9.99935e-06
9.99927e-06
9.99933e-06
9.99943e-06
9.99956e-06
9.9997e-06
9.99983e-06
9.99983e-06
9.99971e-06
9.9995e-06
9.9993e-06
9.99916e-06
9.99916e-06
9.9994e-06
9.99993e-06
1.00006e-05
1.00013e-05
1.00018e-05
1.0002e-05
1.00016e-05
1.00008e-05
9.9998e-06
9.99892e-06
9.99816e-06
9.99765e-06
9.99741e-06
9.99751e-06
9.99789e-06
9.99848e-06
9.99915e-06
9.99976e-06
1.00001e-05
1.00002e-05
9.99989e-06
9.99937e-06
9.99875e-06
9.9984e-06
9.99851e-06
9.99916e-06
1.00002e-05
1.00014e-05
1.00025e-05
1.00032e-05
1.00031e-05
1.00024e-05
1.00009e-05
9.99923e-06
9.99743e-06
9.99608e-06
9.9953e-06
9.99533e-06
9.99605e-06
9.99724e-06
9.99868e-06
1.00001e-05
1.00015e-05
1.00026e-05
1.00034e-05
1.00038e-05
1.00038e-05
1.00034e-05
1.00027e-05
1.00019e-05
1.00008e-05
9.99979e-06
9.99895e-06
9.99839e-06
9.99829e-06
9.99862e-06
9.99927e-06
1e-05
1.00007e-05
1.00011e-05
1.00012e-05
1.0001e-05
1.00006e-05
1.00003e-05
9.99987e-06
9.99947e-06
9.99901e-06
9.99838e-06
9.99762e-06
9.99701e-06
9.99707e-06
9.99723e-06
9.9976e-06
9.99807e-06
9.99861e-06
9.99912e-06
9.99951e-06
9.99979e-06
9.99996e-06
1.00001e-05
1.00002e-05
1.00002e-05
1.00002e-05
1.00002e-05
1.00001e-05
1e-05
1e-05
1e-05
1.00001e-05
1.00002e-05
1.00002e-05
1.00002e-05
1.00002e-05
9.99999e-06
9.99979e-06
9.99955e-06
9.99937e-06
9.99926e-06
9.99928e-06
9.99941e-06
9.99962e-06
9.99981e-06
9.99997e-06
1e-05
1.00001e-05
1.00001e-05
1.00002e-05
1.00002e-05
1.00003e-05
1.00001e-05
9.9999e-06
9.99963e-06
9.99948e-06
9.99946e-06
9.99955e-06
9.99971e-06
9.99991e-06
1.00001e-05
1.00002e-05
1.00002e-05
1.00001e-05
1.00001e-05
1e-05
9.99998e-06
1e-05
1e-05
1e-05
1e-05
1.00001e-05
1.00001e-05
1.00001e-05
1.00001e-05
9.99994e-06
9.99971e-06
9.99951e-06
9.99939e-06
9.99941e-06
9.99953e-06
9.99972e-06
9.99995e-06
1.00002e-05
1.00004e-05
1.00005e-05
1.00004e-05
1.00003e-05
1.00002e-05
1.00001e-05
1.00001e-05
1e-05
9.99981e-06
9.99957e-06
9.99944e-06
9.99944e-06
9.99954e-06
9.99967e-06
9.99983e-06
9.99999e-06
1.00001e-05
1.00001e-05
1.00002e-05
1.00002e-05
1.00002e-05
1.00001e-05
1e-05
9.99999e-06
9.99996e-06
9.99992e-06
9.99994e-06
9.99995e-06
9.99999e-06
1e-05
1.00001e-05
1.00002e-05
1.00003e-05
1.00003e-05
1.00003e-05
1.00003e-05
1.00002e-05
1.00001e-05
1e-05
9.99999e-06
9.99994e-06
9.99984e-06
9.99978e-06
9.99982e-06
9.99991e-06
9.99994e-06
9.99993e-06
9.99987e-06
9.99983e-06
9.99981e-06
9.9999e-06
1e-05
1.00002e-05
1.00003e-05
1.00003e-05
1.00003e-05
1.00002e-05
9.99999e-06
9.9999e-06
9.99991e-06
9.99999e-06
1e-05
1e-05
9.99993e-06
9.99987e-06
9.99989e-06
1.00002e-05
1.00006e-05
1.00012e-05
1.00015e-05
1.00008e-05
9.99836e-06
9.99334e-06
9.98667e-06
9.97977e-06
9.97726e-06
9.98554e-06
1.00074e-05
1.00508e-05
1.01051e-05
1.01675e-05
1.02131e-05
1.02309e-05
1.02003e-05
1.00924e-05
9.92823e-06
9.6553e-06
9.36069e-06
9.01579e-06
8.74678e-06
8.51815e-06
8.45753e-06
8.61569e-06
8.91141e-06
9.47705e-06
1.01238e-05
1.11483e-05
1.21368e-05
1.35579e-05
1.48451e-05
1.65825e-05
1.81432e-05
2.02537e-05
2.19773e-05
2.37134e-05
2.55645e-05
2.75441e-05
2.94323e-05
3.13559e-05
3.33152e-05
3.5372e-05
3.74768e-05
3.94412e-05
4.15069e-05
4.36177e-05
4.56777e-05
4.75702e-05
4.95447e-05
5.19332e-05
5.39476e-05
5.58696e-05
5.75946e-05
5.95554e-05
6.14248e-05
6.30709e-05
6.47236e-05
6.62954e-05
6.77756e-05
6.9033e-05
7.0305e-05
7.16121e-05
7.27461e-05
7.39858e-05
7.49665e-05
7.60849e-05
7.7113e-05
7.79419e-05
7.87311e-05
7.95252e-05
8.01385e-05
8.0852e-05
8.13632e-05
8.20489e-05
8.26985e-05
8.3228e-05
8.37679e-05
8.43205e-05
8.46862e-05
8.50607e-05
8.51713e-05
8.52948e-05
8.5301e-05
8.51814e-05
8.50463e-05
8.49761e-05
8.48714e-05
8.47092e-05
8.4497e-05
8.42748e-05
8.39274e-05
8.34681e-05
8.29085e-05
8.22946e-05
8.1543e-05
8.06951e-05
7.9725e-05
7.87258e-05
7.76631e-05
7.66154e-05
7.54876e-05
7.43029e-05
7.3019e-05
7.17934e-05
7.06874e-05
6.98733e-05
6.92847e-05
6.8735e-05
6.78771e-05
6.67614e-05
6.55672e-05
6.44539e-05
6.33115e-05
6.2255e-05
6.13747e-05
6.06542e-05
6.00433e-05
5.96452e-05
5.92579e-05
5.87652e-05
5.84428e-05
5.7923e-05
5.73004e-05
5.68365e-05
5.67603e-05
5.6846e-05
5.74545e-05
5.83947e-05
5.98455e-05
6.1335e-05
6.30126e-05
6.50723e-05
6.69207e-05
6.90858e-05
7.14231e-05
7.35495e-05
7.55539e-05
7.77577e-05
7.981e-05
8.19061e-05
8.44596e-05
8.68336e-05
8.93877e-05
9.15405e-05
9.5758e-05
0.000100448
0.000105473
0.000109854
0.000114069
0.000116664
0.000116617
0.000113209
0.000106201
9.67134e-05
8.55185e-05
7.82763e-05
8.33099e-05
0.000112766
0.00020333
0.000266656
0.000295689
0.000322984
0.000336443
0.000329358
0.000342643
0.00034973
0.000348997
0.000354564
0.00035084
0.000343791
0.000349059
0.000324388
0.000355408
0.000356349
0.000342122
0.000356151
0.000349966
0.000319788
0.000350329
0.00034899
0.000334095
0.000344263
0.000353465
0.000338357
0.000330557
0.000332752
0.000325028
0.00034585
0.000377175
0.000334922
0.000352347
0.000347149
0.00034199
0.000351998
0.000332749
0.000383944
0.000341027
0.000359933
0.000348288
0.000349644
0.000335328
0.00032773
0.000332665
0.000351094
0.000349182
0.00036109
0.000349796
0.000335059
0.000332021
0.000360858
0.000337585
0.000350985
0.000343541
0.000342522
0.000375045
0.000363753
0.000358799
0.000326603
0.000348809
0.000381971
0.000351337
0.000318068
0.000357028
0.000352249
0.000344554
0.000350374
0.000346608
0.000338904
0.000345699
0.000387981
0.00036901
0.000381446
0.000365636
0.000367369
0.000333974
0.000332809
0.000355574
0.000330978
0.00035534
0.00037321
0.000339577
0.00035167
0.000352482
0.000344228
0.000359439
0.000336147
0.000346249
0.000355411
0.000346437
0.00035951
0.000352007
0.000368998
0.000343134
0.000321586
0.000330772
0.000325131
0.000342036
0.000339598
0.000342118