/*--------------------------------*- C++ -*----------------------------------*\
| =========                 |                                                 |
| \\      /  F ield         | foam-extend: Open Source CFD                    |
|  \\    /   O peration     | Version:     4.0                                |
|   \\  /    A nd           | Web:         http://www.foam-extend.org         |
|    \\/     M anipulation  |                                                 |
\*---------------------------------------------------------------------------*/
FoamFile
{
    version     2.0;
    format      ascii;
    class       volScalarField;
    location    "0.015";
    object      h;
}
// * * * * * * * * * * * * * * * * * * * * * * * * * * * * * * * * * * * * * //

dimensions      [0 1 0 0 0 0 0];

internalField   nonuniform List<scalar> 
176451
(
1.0005e-05
9.9964e-06
9.99576e-06
9.99879e-06
1.00012e-05
1.00035e-05
9.99618e-06
9.9997e-06
1.00009e-05
1.00014e-05
1.00037e-05
1.00063e-05
1.00009e-05
9.99888e-06
9.99704e-06
9.99877e-06
1.00001e-05
9.99864e-06
1.00049e-05
1.00005e-05
1.00008e-05
1.00011e-05
9.99924e-06
1.00023e-05
1.00023e-05
1.00029e-05
1.00005e-05
9.99855e-06
9.99784e-06
1.00005e-05
9.99948e-06
1.00022e-05
1.00002e-05
9.99678e-06
9.99659e-06
1.00027e-05
1.00041e-05
1.00032e-05
9.99878e-06
9.99748e-06
9.99858e-06
1.00021e-05
9.99819e-06
9.99955e-06
1.00027e-05
1.0001e-05
9.99971e-06
1.0001e-05
1.00017e-05
1.00048e-05
1.00033e-05
9.99885e-06
9.99817e-06
9.99753e-06
9.99945e-06
1.00017e-05
1.00008e-05
1.00002e-05
9.997e-06
1.00043e-05
1.00024e-05
9.99729e-06
9.99418e-06
9.9997e-06
1.00006e-05
1.0003e-05
1.00014e-05
1.00022e-05
1.00024e-05
9.99746e-06
9.99922e-06
1.00014e-05
9.99982e-06
1.00042e-05
1.00029e-05
1.00004e-05
9.99972e-06
1.00019e-05
9.9979e-06
9.99527e-06
9.99943e-06
1.00042e-05
9.99806e-06
9.99475e-06
1.00005e-05
9.99957e-06
9.99901e-06
1.00014e-05
1e-05
1.00005e-05
1.00001e-05
1.00001e-05
1.00022e-05
9.99971e-06
9.99906e-06
9.99511e-06
9.99613e-06
1.00003e-05
1.00051e-05
1.00007e-05
9.99913e-06
9.9995e-06
1.00038e-05
9.99888e-06
1.00017e-05
9.99939e-06
1.00002e-05
1.00003e-05
1.00031e-05
1.00029e-05
1.00026e-05
1.00012e-05
1.00024e-05
9.99933e-06
1.00037e-05
1.00043e-05
1.00024e-05
1.00001e-05
1.00039e-05
1.00014e-05
1.00012e-05
9.99574e-06
9.99623e-06
9.9993e-06
1.00015e-05
9.99968e-06
1.00004e-05
1.00006e-05
1.00003e-05
1.00018e-05
1.00029e-05
1.0003e-05
1e-05
1.00025e-05
9.99997e-06
9.99752e-06
1.00031e-05
9.99809e-06
1.00002e-05
1.00004e-05
9.9998e-06
9.99708e-06
1.00069e-05
1.00026e-05
9.99849e-06
9.99872e-06
1.00016e-05
1.00051e-05
9.99734e-06
1.00013e-05
1.00064e-05
9.99975e-06
9.99876e-06
9.99962e-06
9.99771e-06
1.00004e-05
1.00011e-05
1.0001e-05
1.00015e-05
1.00021e-05
1.00003e-05
1.0001e-05
9.99527e-06
9.99816e-06
9.99912e-06
1.00009e-05
1.00021e-05
9.99953e-06
9.99845e-06
1.00019e-05
9.99616e-06
9.99944e-06
1.00049e-05
1.0001e-05
9.99781e-06
9.99915e-06
1.0002e-05
9.99638e-06
9.99912e-06
1.00027e-05
1.00012e-05
1.00005e-05
9.99593e-06
1.00013e-05
9.99854e-06
9.99953e-06
1.00002e-05
1.00035e-05
1.00077e-05
1.0004e-05
1.00013e-05
9.99553e-06
9.98982e-06
9.98502e-06
9.98188e-06
9.98097e-06
9.98222e-06
9.98499e-06
9.98868e-06
9.99248e-06
9.99597e-06
9.99872e-06
1.00008e-05
1.00021e-05
1.00029e-05
1.00031e-05
1.0003e-05
1.00026e-05
1.00019e-05
1.0001e-05
9.99992e-06
9.99881e-06
9.99778e-06
9.997e-06
9.99668e-06
9.99695e-06
9.99787e-06
9.99931e-06
1.00012e-05
1.00032e-05
1.00053e-05
1.00071e-05
1.00086e-05
1.00098e-05
1.00108e-05
1.00117e-05
1.00126e-05
1.00135e-05
1.00142e-05
1.00146e-05
1.00145e-05
1.00139e-05
1.00128e-05
1.00114e-05
1.00099e-05
1.00085e-05
1.00073e-05
1.00063e-05
1.00055e-05
1.00048e-05
1.00041e-05
1.00034e-05
1.00028e-05
1.00024e-05
1.0002e-05
1.00017e-05
1.00014e-05
1.0001e-05
1.00005e-05
1.00002e-05
1.00001e-05
1.00002e-05
1.00006e-05
1.00012e-05
1.00018e-05
1.00021e-05
1.0002e-05
1.00015e-05
1.00006e-05
9.99944e-06
9.99834e-06
9.99744e-06
9.99705e-06
9.99715e-06
9.99773e-06
9.99871e-06
9.99992e-06
1.00012e-05
1.00022e-05
1.00031e-05
1.00036e-05
1.00041e-05
1.00044e-05
1.00049e-05
1.00053e-05
1.00055e-05
1.00051e-05
1.00039e-05
1.00021e-05
9.99978e-06
9.99733e-06
9.99502e-06
9.99328e-06
9.99205e-06
9.99132e-06
9.99095e-06
9.99086e-06
9.99079e-06
9.99061e-06
9.99028e-06
9.98991e-06
9.9895e-06
9.98916e-06
9.98903e-06
9.98932e-06
9.99004e-06
9.99117e-06
9.99276e-06
9.99466e-06
9.99659e-06
9.99817e-06
9.99919e-06
9.9995e-06
9.99912e-06
9.9983e-06
9.99746e-06
9.99711e-06
9.99742e-06
9.99842e-06
9.99997e-06
1.00017e-05
1.0003e-05
1.00035e-05
1.00031e-05
1.00021e-05
1.00007e-05
9.99929e-06
9.99838e-06
9.99822e-06
9.99864e-06
9.9994e-06
1.00004e-05
1.00014e-05
1.00022e-05
1.00029e-05
1.00036e-05
1.00041e-05
1.00046e-05
1.00048e-05
1.00049e-05
1.00048e-05
1.00047e-05
1.00045e-05
1.00044e-05
1.00043e-05
1.00042e-05
1.00042e-05
1.00041e-05
1.0004e-05
1.00036e-05
1.00032e-05
1.00026e-05
1.00019e-05
1.00011e-05
1.00003e-05
9.99934e-06
9.99824e-06
9.99703e-06
9.99588e-06
9.99489e-06
9.99421e-06
9.99397e-06
9.99423e-06
9.99498e-06
9.99615e-06
9.99777e-06
9.99973e-06
1.00019e-05
1.00038e-05
1.00052e-05
1.00056e-05
1.00051e-05
1.00036e-05
1.00017e-05
9.99975e-06
9.99825e-06
9.99735e-06
9.99709e-06
9.99738e-06
9.99801e-06
9.99866e-06
9.99919e-06
9.99951e-06
9.99961e-06
9.99951e-06
9.99939e-06
9.99942e-06
9.9997e-06
1.00002e-05
1.00009e-05
1.00017e-05
1.00025e-05
1.00033e-05
1.0004e-05
1.00046e-05
1.00052e-05
1.00055e-05
1.00057e-05
1.00057e-05
1.00055e-05
1.0005e-05
1.00042e-05
1.00033e-05
1.00022e-05
1.0001e-05
9.99976e-06
9.99866e-06
9.99775e-06
9.99703e-06
9.99651e-06
9.99622e-06
9.99614e-06
9.9962e-06
9.99645e-06
9.99685e-06
9.9973e-06
9.99757e-06
9.99755e-06
9.99719e-06
9.99654e-06
9.99568e-06
9.9949e-06
9.99442e-06
9.9944e-06
9.99483e-06
9.99575e-06
9.99707e-06
9.99869e-06
1.00003e-05
1.00017e-05
1.00026e-05
1.0003e-05
1.00027e-05
1.0002e-05
1.00012e-05
1.00006e-05
1.00004e-05
1.00006e-05
1.00014e-05
1.00027e-05
1.0004e-05
1.00052e-05
1.00062e-05
1.00068e-05
1.00067e-05
1.00062e-05
1.00052e-05
1.0004e-05
1.00025e-05
1.00011e-05
9.99998e-06
9.99926e-06
9.99881e-06
9.99866e-06
9.99858e-06
9.99843e-06
9.99801e-06
9.99753e-06
9.99698e-06
9.99636e-06
9.99554e-06
9.99459e-06
9.99335e-06
9.99188e-06
9.99007e-06
9.98837e-06
9.98702e-06
9.98633e-06
9.98635e-06
9.98734e-06
9.98931e-06
9.99207e-06
9.99561e-06
9.9993e-06
1.0003e-05
1.00062e-05
1.00089e-05
1.00107e-05
1.00117e-05
1.00121e-05
1.00121e-05
1.00119e-05
1.00116e-05
1.00113e-05
1.00108e-05
1.00104e-05
1.00098e-05
1.00092e-05
1.00083e-05
1.00074e-05
1.00065e-05
1.00055e-05
1.00044e-05
1.00034e-05
1.00021e-05
1.00007e-05
9.99913e-06
9.99763e-06
9.99641e-06
9.99564e-06
9.99537e-06
9.99564e-06
9.99625e-06
9.99694e-06
9.99752e-06
9.99794e-06
9.99826e-06
9.99855e-06
9.99899e-06
9.99975e-06
1.00009e-05
1.00024e-05
1.00042e-05
1.00059e-05
1.00074e-05
1.00084e-05
1.00088e-05
1.00085e-05
1.00076e-05
1.00063e-05
1.00046e-05
1.00028e-05
1.0001e-05
9.99928e-06
9.99752e-06
9.99611e-06
9.9951e-06
9.99456e-06
9.99453e-06
9.99514e-06
9.99631e-06
9.99777e-06
9.99936e-06
1.00008e-05
1.00019e-05
1.00025e-05
1.00025e-05
1.0002e-05
1.00009e-05
9.99952e-06
9.99803e-06
9.99683e-06
9.99613e-06
9.99607e-06
9.99656e-06
9.99733e-06
9.99819e-06
9.99894e-06
9.9995e-06
9.99978e-06
9.99982e-06
9.99968e-06
9.99942e-06
9.99906e-06
9.99881e-06
9.99889e-06
9.99948e-06
1.00006e-05
1.0002e-05
1.00035e-05
1.00046e-05
1.00049e-05
1.00043e-05
1.0003e-05
1.00012e-05
9.99931e-06
9.99776e-06
9.99681e-06
9.99648e-06
9.99667e-06
9.99733e-06
9.9984e-06
9.99989e-06
1.00016e-05
1.00036e-05
1.00054e-05
1.00068e-05
1.00075e-05
1.00071e-05
1.0006e-05
1.00042e-05
1.00022e-05
1.00003e-05
9.9987e-06
9.99742e-06
9.99636e-06
9.99544e-06
9.99464e-06
9.99392e-06
9.99324e-06
9.99265e-06
9.99221e-06
9.99193e-06
9.99182e-06
9.99196e-06
9.9924e-06
9.9931e-06
9.99387e-06
9.99459e-06
9.99512e-06
9.99538e-06
9.99534e-06
9.99512e-06
9.99489e-06
9.99477e-06
9.99479e-06
9.99503e-06
9.99557e-06
9.99643e-06
9.99757e-06
9.99906e-06
1.00008e-05
1.00028e-05
1.00048e-05
1.00066e-05
1.00081e-05
1.00092e-05
1.001e-05
1.00104e-05
1.00108e-05
1.0011e-05
1.00111e-05
1.00111e-05
1.00107e-05
1.001e-05
1.00088e-05
1.00071e-05
1.00052e-05
1.00033e-05
1.00017e-05
1.00007e-05
1.00004e-05
1.0001e-05
1.00023e-05
1.0004e-05
1.00059e-05
1.00075e-05
1.00084e-05
1.00085e-05
1.00077e-05
1.00061e-05
1.00038e-05
1.00013e-05
9.99911e-06
9.99753e-06
9.9966e-06
9.99654e-06
9.99706e-06
9.99783e-06
9.99832e-06
9.99815e-06
9.99714e-06
9.99545e-06
9.99328e-06
9.99157e-06
9.99081e-06
9.9915e-06
9.99361e-06
9.99661e-06
9.99999e-06
1.00029e-05
1.00048e-05
1.00056e-05
1.00054e-05
1.00044e-05
1.0003e-05
1.00014e-05
9.99956e-06
9.9977e-06
9.99556e-06
9.99362e-06
9.99203e-06
9.99119e-06
9.99128e-06
9.99252e-06
9.99493e-06
9.99807e-06
1.00018e-05
1.00052e-05
1.00083e-05
1.00104e-05
1.00114e-05
1.00113e-05
1.00101e-05
1.00086e-05
1.00067e-05
1.00052e-05
1.0004e-05
1.00033e-05
1.00029e-05
1.00028e-05
1.00028e-05
1.00029e-05
1.00032e-05
1.00039e-05
1.00049e-05
1.0006e-05
1.00072e-05
1.00083e-05
1.00091e-05
1.00094e-05
1.00092e-05
1.00085e-05
1.00075e-05
1.00059e-05
1.00037e-05
1.00011e-05
9.99821e-06
9.99529e-06
9.99258e-06
9.99053e-06
9.98938e-06
9.98906e-06
9.98936e-06
9.99e-06
9.99066e-06
9.99108e-06
9.99125e-06
9.99126e-06
9.99124e-06
9.99141e-06
9.99188e-06
9.9927e-06
9.99393e-06
9.99555e-06
9.99771e-06
1.00004e-05
1.00035e-05
1.00067e-05
1.00096e-05
1.00118e-05
1.00128e-05
1.00122e-05
1.00102e-05
1.00074e-05
1.00041e-05
1.00012e-05
9.99893e-06
9.9975e-06
9.99674e-06
9.99633e-06
9.99578e-06
9.99472e-06
9.9931e-06
9.99118e-06
9.98926e-06
9.98775e-06
9.98703e-06
9.98733e-06
9.98863e-06
9.99069e-06
9.99327e-06
9.99597e-06
9.99857e-06
1.00007e-05
1.00023e-05
1.00034e-05
1.00041e-05
1.00045e-05
1.00049e-05
1.00056e-05
1.00068e-05
1.00085e-05
1.00106e-05
1.00131e-05
1.00155e-05
1.00174e-05
1.00184e-05
1.00187e-05
1.00181e-05
1.00169e-05
1.00155e-05
1.00143e-05
1.00133e-05
1.00121e-05
1.00106e-05
1.00082e-05
1.00045e-05
9.9996e-06
9.99357e-06
9.98736e-06
9.98164e-06
9.97737e-06
9.97531e-06
9.9759e-06
9.979e-06
9.98386e-06
9.98962e-06
9.99504e-06
9.99936e-06
1.00019e-05
1.00027e-05
1.00021e-05
1.00007e-05
9.99905e-06
9.99762e-06
9.99672e-06
9.9963e-06
9.99615e-06
9.99608e-06
9.99604e-06
9.99609e-06
9.99635e-06
9.99709e-06
9.99842e-06
1.00003e-05
1.00024e-05
1.00042e-05
1.00054e-05
1.00058e-05
1.00054e-05
1.00044e-05
1.00032e-05
1.00021e-05
1.00012e-05
1.00008e-05
1.00006e-05
1.00007e-05
1.00007e-05
1.00006e-05
1.00004e-05
9.99988e-06
9.99909e-06
9.99812e-06
9.99714e-06
9.99629e-06
9.99567e-06
9.99537e-06
9.99541e-06
9.99569e-06
9.99605e-06
9.99649e-06
9.9969e-06
9.99724e-06
9.99766e-06
9.99833e-06
9.99939e-06
1.00008e-05
1.00025e-05
1.00042e-05
1.00056e-05
1.00063e-05
1.0006e-05
1.00045e-05
1.00018e-05
9.99856e-06
9.99489e-06
9.99181e-06
9.98963e-06
9.98876e-06
9.98914e-06
9.9907e-06
9.99312e-06
9.99579e-06
9.99834e-06
1.00002e-05
1.00012e-05
1.00014e-05
1.00008e-05
9.99999e-06
9.99914e-06
9.99863e-06
9.99847e-06
9.99877e-06
9.99944e-06
1.00003e-05
1.00012e-05
1.00019e-05
1.00025e-05
1.00029e-05
1.0003e-05
1.00029e-05
1.00029e-05
1.0003e-05
1.00031e-05
1.00033e-05
1.00037e-05
1.00041e-05
1.00046e-05
1.0005e-05
1.00051e-05
1.00048e-05
1.0004e-05
1.00028e-05
1.00011e-05
9.99917e-06
9.99716e-06
9.99533e-06
9.99391e-06
9.99298e-06
9.99256e-06
9.99277e-06
9.99351e-06
9.99461e-06
9.99593e-06
9.99721e-06
9.99835e-06
9.99918e-06
9.99972e-06
1e-05
1.00002e-05
1.00002e-05
1.00002e-05
1.00002e-05
1.00002e-05
1.00001e-05
1e-05
9.99971e-06
9.9992e-06
9.9984e-06
9.99728e-06
9.99601e-06
9.99471e-06
9.99355e-06
9.99286e-06
9.99288e-06
9.99376e-06
9.99542e-06
9.99772e-06
1.00003e-05
1.00028e-05
1.00048e-05
1.00061e-05
1.00067e-05
1.00067e-05
1.00063e-05
1.00058e-05
1.00055e-05
1.00054e-05
1.00056e-05
1.00056e-05
1.00055e-05
1.00049e-05
1.00039e-05
1.00025e-05
1.00008e-05
9.99909e-06
9.99775e-06
9.99683e-06
9.99636e-06
9.9963e-06
9.99656e-06
9.99698e-06
9.99735e-06
9.9976e-06
9.99766e-06
9.99747e-06
9.99691e-06
9.99602e-06
9.99496e-06
9.99388e-06
9.99291e-06
9.99229e-06
9.99222e-06
9.99279e-06
9.99397e-06
9.99574e-06
9.99786e-06
1.00001e-05
1.00021e-05
1.00036e-05
1.00045e-05
1.00046e-05
1.00042e-05
1.00035e-05
1.0003e-05
1.00029e-05
1.00033e-05
1.00043e-05
1.00054e-05
1.00066e-05
1.00075e-05
1.00079e-05
1.00079e-05
1.00074e-05
1.00067e-05
1.00058e-05
1.00048e-05
1.00037e-05
1.00024e-05
1.00009e-05
9.99908e-06
9.99704e-06
9.99479e-06
9.99251e-06
9.99052e-06
9.98903e-06
9.98824e-06
9.98826e-06
9.9891e-06
9.99061e-06
9.99239e-06
9.99419e-06
9.99574e-06
9.99698e-06
9.99786e-06
9.99854e-06
9.99922e-06
1.00001e-05
1.0001e-05
1.00019e-05
1.00028e-05
1.00034e-05
1.00035e-05
1.00031e-05
1.00025e-05
1.00016e-05
1.00007e-05
9.99998e-06
9.99945e-06
9.99913e-06
9.99891e-06
9.99876e-06
9.99872e-06
9.99885e-06
9.99917e-06
9.99979e-06
1.00008e-05
1.00021e-05
1.00035e-05
1.00049e-05
1.00062e-05
1.00071e-05
1.00074e-05
1.0007e-05
1.0006e-05
1.00045e-05
1.00026e-05
1.00006e-05
9.9988e-06
9.99747e-06
9.99675e-06
9.99691e-06
9.99786e-06
9.99931e-06
1.0001e-05
1.00023e-05
1.0003e-05
1.00028e-05
1.00016e-05
9.99973e-06
9.99744e-06
9.99528e-06
9.99345e-06
9.99249e-06
9.99238e-06
9.99302e-06
9.99412e-06
9.99533e-06
9.99643e-06
9.99725e-06
9.99773e-06
9.99797e-06
9.99806e-06
9.99818e-06
9.99838e-06
9.99875e-06
9.99925e-06
9.99978e-06
1.00002e-05
1.00003e-05
1.00001e-05
9.99946e-06
9.99839e-06
9.99712e-06
9.99568e-06
9.9944e-06
9.99338e-06
9.99308e-06
9.99349e-06
9.99462e-06
9.99635e-06
9.9983e-06
1.00002e-05
1.00016e-05
1.00023e-05
1.00022e-05
1.00014e-05
1.00004e-05
9.99941e-06
9.99893e-06
9.99913e-06
1.00001e-05
1.00018e-05
1.00037e-05
1.00056e-05
1.00069e-05
1.00076e-05
1.00076e-05
1.00067e-05
1.00053e-05
1.00035e-05
1.00016e-05
9.99974e-06
9.99828e-06
9.99711e-06
9.99651e-06
9.99634e-06
9.99667e-06
9.99738e-06
9.99836e-06
9.99948e-06
1.00006e-05
1.00016e-05
1.00024e-05
1.0003e-05
1.00035e-05
1.00038e-05
1.00041e-05
1.00044e-05
1.00045e-05
1.00043e-05
1.00039e-05
1.0003e-05
1.00017e-05
1.00001e-05
9.99845e-06
9.99684e-06
9.99557e-06
9.9947e-06
9.9945e-06
9.99491e-06
9.99584e-06
9.99718e-06
9.99867e-06
1.00001e-05
1.00012e-05
1.00019e-05
1.00022e-05
1.00021e-05
1.00018e-05
1.00014e-05
1.00011e-05
1.0001e-05
1.00011e-05
1.00013e-05
1.00016e-05
1.00017e-05
1.00017e-05
1.00015e-05
1.00011e-05
1.00006e-05
1.00001e-05
9.99975e-06
9.99955e-06
9.99964e-06
1.00001e-05
1.00009e-05
1.00019e-05
1.00028e-05
1.00035e-05
1.00036e-05
1.00031e-05
1.00019e-05
1.00002e-05
9.99803e-06
9.99583e-06
9.99388e-06
9.99252e-06
9.99187e-06
9.99195e-06
9.9927e-06
9.99394e-06
9.99547e-06
9.99695e-06
9.99823e-06
9.99921e-06
9.9999e-06
1.00003e-05
1.00005e-05
1.00006e-05
1.00008e-05
1.00009e-05
1.00008e-05
1.00004e-05
9.99972e-06
9.99858e-06
9.99713e-06
9.99567e-06
9.99445e-06
9.9938e-06
9.99399e-06
9.99521e-06
9.99744e-06
1.00004e-05
1.00038e-05
1.00072e-05
1.00101e-05
1.0012e-05
1.00127e-05
1.00122e-05
1.00106e-05
1.00082e-05
1.00054e-05
1.00026e-05
1.00001e-05
9.99811e-06
9.99685e-06
9.99635e-06
9.99646e-06
9.99698e-06
9.9978e-06
9.99879e-06
9.99979e-06
1.00005e-05
1.00009e-05
1.00009e-05
1.00005e-05
9.9997e-06
9.99881e-06
9.9981e-06
9.99771e-06
9.99765e-06
9.99792e-06
9.99841e-06
9.99894e-06
9.99927e-06
9.99935e-06
9.99922e-06
9.99892e-06
9.99842e-06
9.99786e-06
9.99738e-06
9.9971e-06
9.99705e-06
9.99726e-06
9.99776e-06
9.99852e-06
9.99944e-06
1.00004e-05
1.00013e-05
1.00021e-05
1.00027e-05
1.0003e-05
1.0003e-05
1.00028e-05
1.00023e-05
1.00018e-05
1.00013e-05
1.00011e-05
1.0001e-05
1.00011e-05
1.00015e-05
1.00021e-05
1.00028e-05
1.00034e-05
1.00038e-05
1.00041e-05
1.00041e-05
1.00038e-05
1.00032e-05
1.00025e-05
1.00016e-05
1.00006e-05
9.9997e-06
9.99898e-06
9.99841e-06
9.99817e-06
9.99818e-06
9.99842e-06
9.99873e-06
9.99906e-06
9.99934e-06
9.99951e-06
9.99945e-06
9.9992e-06
9.99874e-06
9.99825e-06
9.99766e-06
9.99718e-06
9.9968e-06
9.99673e-06
9.997e-06
9.99761e-06
9.99848e-06
9.99949e-06
1.00005e-05
1.00013e-05
1.00019e-05
1.00022e-05
1.00021e-05
1.00016e-05
1.00007e-05
9.99973e-06
9.99854e-06
9.99751e-06
9.99658e-06
9.99603e-06
9.99576e-06
9.99588e-06
9.99629e-06
9.99694e-06
9.99776e-06
9.99863e-06
9.99949e-06
1.00003e-05
1.00009e-05
1.00013e-05
1.00015e-05
1.00017e-05
1.00017e-05
1.00018e-05
1.00019e-05
1.0002e-05
1.0002e-05
1.0002e-05
1.00017e-05
1.00013e-05
1.00006e-05
9.99977e-06
9.99892e-06
9.9982e-06
9.99763e-06
9.99743e-06
9.99756e-06
9.99803e-06
9.99876e-06
9.99963e-06
1.00006e-05
1.00014e-05
1.0002e-05
1.00025e-05
1.00028e-05
1.00028e-05
1.00026e-05
1.00022e-05
1.00017e-05
1.00012e-05
1.00007e-05
1.00003e-05
1e-05
9.99991e-06
9.99988e-06
9.99981e-06
9.99967e-06
9.99951e-06
9.99937e-06
9.99928e-06
9.99934e-06
9.99962e-06
1.00001e-05
1.00007e-05
1.00013e-05
1.00018e-05
1.00021e-05
1.00021e-05
1.00018e-05
1.00013e-05
1.00006e-05
9.99984e-06
9.9991e-06
9.99853e-06
9.99816e-06
9.99797e-06
9.99801e-06
9.99827e-06
9.99872e-06
9.9992e-06
9.99968e-06
1.00001e-05
1.00004e-05
1.00006e-05
1.00007e-05
1.00007e-05
1.00007e-05
1.00006e-05
1.00004e-05
1.00002e-05
1e-05
9.99982e-06
9.99967e-06
9.99961e-06
9.99964e-06
9.99972e-06
9.99983e-06
9.99996e-06
1.00001e-05
1e-05
9.99988e-06
9.99962e-06
9.99927e-06
9.99882e-06
9.99838e-06
9.99811e-06
9.99804e-06
9.99813e-06
9.99842e-06
9.99892e-06
9.99962e-06
1.00004e-05
1.00011e-05
1.00018e-05
1.00022e-05
1.00024e-05
1.00022e-05
1.00018e-05
1.00012e-05
1.00006e-05
1e-05
9.99954e-06
9.99922e-06
9.99897e-06
9.99878e-06
9.99862e-06
9.99847e-06
9.99824e-06
9.99798e-06
9.99778e-06
9.99769e-06
9.99772e-06
9.99791e-06
9.99828e-06
9.99881e-06
9.99933e-06
9.99981e-06
1.00002e-05
1.00005e-05
1.00006e-05
1.00006e-05
1.00005e-05
1.00005e-05
1.00004e-05
1.00003e-05
1.00003e-05
1.00004e-05
1.00005e-05
1.00005e-05
1.00004e-05
1.00005e-05
1.00005e-05
1.00005e-05
1.00005e-05
1.00005e-05
1.00004e-05
1.00003e-05
1.00001e-05
1.00001e-05
9.99999e-06
9.99997e-06
1e-05
1.00001e-05
1.00003e-05
1.00005e-05
1.00006e-05
1.00007e-05
1.00006e-05
1.00005e-05
1.00002e-05
1e-05
9.99977e-06
9.99958e-06
9.99941e-06
9.99935e-06
9.9993e-06
9.99931e-06
9.99935e-06
9.99946e-06
9.99956e-06
9.99968e-06
9.9998e-06
9.99994e-06
1e-05
1e-05
9.99997e-06
9.99989e-06
9.99976e-06
9.99969e-06
9.99968e-06
9.99981e-06
1.00001e-05
1.00004e-05
1.00008e-05
1.00011e-05
1.00011e-05
1.00011e-05
1.00009e-05
1.00006e-05
1.00002e-05
9.99983e-06
9.99947e-06
9.99928e-06
9.99918e-06
9.99924e-06
9.99939e-06
9.99965e-06
9.99997e-06
1.00004e-05
1.00009e-05
1.00017e-05
1.00024e-05
1.00028e-05
1.00026e-05
1.00012e-05
9.99847e-06
9.99469e-06
9.99001e-06
9.98515e-06
9.98071e-06
9.97812e-06
9.97801e-06
9.98096e-06
9.98806e-06
9.99755e-06
1.00124e-05
1.00314e-05
1.0054e-05
1.00755e-05
1.01001e-05
1.01257e-05
1.0146e-05
1.01641e-05
1.01749e-05
1.01793e-05
1.01757e-05
1.01612e-05
1.01392e-05
1.01063e-05
1.00699e-05
1.00194e-05
9.96905e-06
9.91627e-06
9.85302e-06
9.78812e-06
9.72321e-06
9.65359e-06
9.56675e-06
9.47419e-06
9.37751e-06
9.27046e-06
9.13569e-06
8.99261e-06
8.8475e-06
8.70349e-06
8.56944e-06
8.48131e-06
8.4684e-06
8.56492e-06
8.84563e-06
9.31344e-06
9.98177e-06
1.08479e-05
1.19865e-05
1.32633e-05
1.46403e-05
1.60899e-05
1.77054e-05
1.93239e-05
2.09309e-05
2.25202e-05
2.42058e-05
2.5829e-05
2.73607e-05
2.87976e-05
3.02544e-05
3.15611e-05
3.2686e-05
3.36551e-05
3.45953e-05
3.53832e-05
3.60208e-05
3.6592e-05
3.72447e-05
3.78936e-05
3.8549e-05
3.92805e-05
4.02103e-05
4.12163e-05
4.22763e-05
4.34055e-05
4.47051e-05
4.60164e-05
4.73061e-05
4.85716e-05
4.99023e-05
5.11435e-05
5.22695e-05
5.32902e-05
5.43203e-05
5.52403e-05
5.6041e-05
5.67625e-05
5.74945e-05
5.81432e-05
5.86887e-05
5.91624e-05
5.96383e-05
6.00262e-05
6.03078e-05
6.05176e-05
6.07112e-05
6.08142e-05
6.081e-05
6.07335e-05
6.06305e-05
6.04514e-05
6.01806e-05
5.98597e-05
5.9501e-05
5.90634e-05
5.852e-05
5.79143e-05
5.72681e-05
5.65638e-05
5.57776e-05
5.49486e-05
5.40804e-05
5.31845e-05
5.22565e-05
5.13393e-05
5.03975e-05
4.93935e-05
4.82714e-05
4.70765e-05
4.5782e-05
4.44199e-05
4.29701e-05
4.14893e-05
3.99535e-05
3.82322e-05
3.63779e-05
3.42332e-05
3.18949e-05
2.91682e-05
2.64584e-05
2.36737e-05
2.13772e-05
1.9649e-05
1.9135e-05
2.01548e-05
2.26551e-05
2.63656e-05
3.02028e-05
3.40151e-05
3.64601e-05
3.59177e-05
3.11704e-05
2.47447e-05
2.33757e-05
3.86576e-05
5.1217e-05
5.99867e-05
6.6574e-05
7.13222e-05
7.34005e-05
7.40181e-05
7.40904e-05
7.38192e-05
7.3088e-05
7.19669e-05
7.07907e-05
6.96582e-05
6.87374e-05
6.79317e-05
6.73257e-05
6.69834e-05
6.69771e-05
6.72297e-05
6.75836e-05
6.79942e-05
6.84149e-05
6.88375e-05
6.91812e-05
6.94406e-05
6.95828e-05
6.96729e-05
6.97165e-05
6.95795e-05
6.95344e-05
6.94719e-05
6.93052e-05
6.92522e-05
6.90772e-05
6.89553e-05
6.8827e-05
6.87064e-05
6.86236e-05
6.85619e-05
6.85541e-05
6.8573e-05
6.85438e-05
6.8564e-05
6.85733e-05
6.8596e-05
6.85642e-05
6.85701e-05
6.8551e-05
6.85379e-05
6.84886e-05
6.85287e-05
6.85067e-05
6.84877e-05
6.85332e-05
6.85259e-05
6.85498e-05
6.85722e-05
6.85519e-05
6.86079e-05
6.85955e-05
6.8642e-05
6.86554e-05
6.86954e-05
6.87207e-05
6.86606e-05
6.8677e-05
6.86278e-05
6.86198e-05
6.86132e-05
6.8643e-05
6.86265e-05
6.86086e-05
6.85931e-05
6.85982e-05
6.86124e-05
6.86878e-05
6.87425e-05
6.87756e-05
6.88194e-05
6.88517e-05
6.88351e-05
6.88091e-05
6.87904e-05
6.87561e-05
6.86946e-05
6.86476e-05
6.86358e-05
6.86362e-05
6.86239e-05
6.86349e-05
6.86831e-05
6.87334e-05
6.87472e-05
6.87575e-05
6.87732e-05
6.87624e-05
6.86968e-05
6.86235e-05
6.85693e-05
6.8527e-05
6.84823e-05
6.84902e-05
6.85722e-05
6.86902e-05
6.87979e-05
6.89171e-05
6.90361e-05
6.90871e-05
6.9024e-05
6.88863e-05
6.86969e-05
6.84669e-05
6.82209e-05
6.80496e-05
6.80133e-05
6.81346e-05
6.83949e-05
6.88088e-05
6.9313e-05
6.97336e-05
6.99282e-05
6.98804e-05
6.95244e-05
6.88282e-05
6.79337e-05
6.71486e-05
6.66874e-05
6.67687e-05
6.7619e-05
6.93912e-05
7.17102e-05
7.3573e-05
7.44135e-05
7.40694e-05
7.1074e-05
6.26826e-05
4.74819e-05
2.94093e-05
2.34127e-05
2.43697e-05
2.68102e-05
2.78256e-05
2.84658e-05
2.90128e-05
2.82781e-05
2.62501e-05
2.3908e-05
2.24224e-05
2.16259e-05
2.11974e-05
2.12434e-05
2.18647e-05
2.2779e-05
2.36838e-05
2.45616e-05
2.55133e-05
2.66183e-05
2.77456e-05
2.88253e-05
2.98557e-05
3.09566e-05
3.21151e-05
3.33497e-05
3.46137e-05
3.59065e-05
3.71484e-05
3.83524e-05
3.94977e-05
4.064e-05
4.17382e-05
4.28228e-05
4.39139e-05
4.50853e-05
4.62751e-05
4.74737e-05
4.86659e-05
4.97964e-05
5.0834e-05
5.178e-05
5.25753e-05
5.32745e-05
5.39496e-05
5.4538e-05
5.5075e-05
5.55473e-05
5.59231e-05
5.62074e-05
5.63924e-05
5.64726e-05
5.64929e-05
5.64596e-05
5.63323e-05
5.61243e-05
5.57833e-05
5.53261e-05
5.46659e-05
5.38902e-05
5.29268e-05
5.19088e-05
5.07119e-05
4.9477e-05
4.81394e-05
4.68606e-05
4.54971e-05
4.42403e-05
4.29913e-05
4.18959e-05
4.07891e-05
3.9791e-05
3.88173e-05
3.7962e-05
3.70956e-05
3.63127e-05
3.5537e-05
3.48728e-05
3.4167e-05
3.35119e-05
3.28497e-05
3.22802e-05
3.16554e-05
3.10038e-05
3.0485e-05
2.9755e-05
2.90798e-05
2.83076e-05
2.76352e-05
2.67902e-05
2.60538e-05
2.52782e-05
2.45193e-05
2.37598e-05
2.29861e-05
2.21807e-05
2.12313e-05
2.03926e-05
1.9469e-05
1.85082e-05
1.7589e-05
1.66566e-05
1.57545e-05
1.49102e-05
1.40334e-05
1.32154e-05
1.2445e-05
1.17183e-05
1.10534e-05
1.04502e-05
9.92024e-06
9.49773e-06
9.14376e-06
8.87381e-06
8.71505e-06
8.6258e-06
8.6049e-06
8.65115e-06
8.74931e-06
8.87997e-06
9.03355e-06
9.20109e-06
9.35991e-06
9.51923e-06
9.66785e-06
9.79909e-06
9.91967e-06
1.00139e-05
1.00934e-05
1.01538e-05
1.01916e-05
1.02142e-05
1.02223e-05
1.02173e-05
1.02009e-05
1.01777e-05
1.01486e-05
1.01178e-05
1.00858e-05
1.00561e-05
1.00302e-05
1.0008e-05
9.9895e-06
9.97636e-06
9.96805e-06
9.96367e-06
9.96268e-06
9.96473e-06
9.96891e-06
9.97449e-06
9.98108e-06
9.98772e-06
9.9939e-06
9.99919e-06
1.00033e-05
1.00059e-05
1.00068e-05
1.00062e-05
1.00044e-05
1.00019e-05
9.99912e-06
9.99668e-06
9.99496e-06
9.9943e-06
9.99467e-06
9.99569e-06
9.99706e-06
9.99844e-06
9.99962e-06
1.00004e-05
1.0001e-05
1.00013e-05
1.00017e-05
1.0002e-05
1.00023e-05
1.00023e-05
1.00021e-05
1.00014e-05
1.00002e-05
9.99878e-06
9.99727e-06
9.99593e-06
9.99504e-06
9.99493e-06
9.99573e-06
9.9973e-06
9.99938e-06
1.00016e-05
1.00034e-05
1.00046e-05
1.00049e-05
1.00045e-05
1.00035e-05
1.00024e-05
1.00014e-05
1.0001e-05
1.00011e-05
1.00016e-05
1.00022e-05
1.00027e-05
1.00029e-05
1.00026e-05
1.00019e-05
1.0001e-05
1.00001e-05
9.99923e-06
9.99854e-06
9.99814e-06
9.998e-06
9.99805e-06
9.99827e-06
9.99863e-06
9.99911e-06
9.99955e-06
9.99995e-06
1.00003e-05
1.00006e-05
1.00007e-05
1.00007e-05
1.00005e-05
1.00002e-05
9.9998e-06
9.99924e-06
9.99866e-06
9.9981e-06
9.99754e-06
9.99701e-06
9.9966e-06
9.9964e-06
9.99641e-06
9.99669e-06
9.99728e-06
9.99818e-06
9.99921e-06
1.00002e-05
1.00011e-05
1.00015e-05
1.00014e-05
1.00009e-05
1.00003e-05
9.99962e-06
9.99897e-06
9.99842e-06
9.99796e-06
9.9977e-06
9.99758e-06
9.99763e-06
9.99777e-06
9.99791e-06
9.99792e-06
9.99777e-06
9.99737e-06
9.99693e-06
9.99657e-06
9.9966e-06
9.99722e-06
9.99841e-06
1e-05
1.00017e-05
1.00031e-05
1.00039e-05
1.00038e-05
1.00027e-05
1.00009e-05
9.99872e-06
9.99638e-06
9.99458e-06
9.99341e-06
9.9932e-06
9.9938e-06
9.99502e-06
9.99661e-06
9.99829e-06
9.99998e-06
1.00014e-05
1.00026e-05
1.00033e-05
1.00037e-05
1.00036e-05
1.00032e-05
1.00025e-05
1.00016e-05
1.00007e-05
9.99986e-06
9.99921e-06
9.99891e-06
9.99896e-06
9.99928e-06
9.99968e-06
1e-05
1.00002e-05
1.00002e-05
1e-05
9.99983e-06
9.99978e-06
9.99977e-06
9.99974e-06
9.99956e-06
9.99909e-06
9.99835e-06
9.99755e-06
9.99727e-06
9.997e-06
9.99694e-06
9.99699e-06
9.99719e-06
9.9975e-06
9.99783e-06
9.99818e-06
9.99855e-06
9.99899e-06
9.99922e-06
9.99952e-06
9.99981e-06
1e-05
1.00002e-05
1.00004e-05
1.00004e-05
1.00004e-05
1.00003e-05
1.00002e-05
9.99999e-06
9.9997e-06
9.9994e-06
9.99908e-06
9.99882e-06
9.99866e-06
9.99868e-06
9.99888e-06
9.99927e-06
9.99978e-06
1.00003e-05
1.00008e-05
1.00011e-05
1.00012e-05
1.00012e-05
1.0001e-05
1.00007e-05
1.00004e-05
1e-05
9.99957e-06
9.99913e-06
9.99876e-06
9.99866e-06
9.99879e-06
9.99913e-06
9.99956e-06
1e-05
1.00004e-05
1.00006e-05
1.00006e-05
1.00005e-05
1.00004e-05
1.00003e-05
1.00002e-05
1.00002e-05
1.00003e-05
1.00004e-05
1.00005e-05
1.00006e-05
1.00006e-05
1.00005e-05
1.00003e-05
9.99992e-06
9.99949e-06
9.99911e-06
9.99887e-06
9.99887e-06
9.99906e-06
9.9994e-06
9.99985e-06
1.00003e-05
1.00008e-05
1.0001e-05
1.00011e-05
1.0001e-05
1.00009e-05
1.00007e-05
1.00006e-05
1.00003e-05
1e-05
9.9997e-06
9.99953e-06
9.9995e-06
9.99959e-06
9.99972e-06
9.99987e-06
1e-05
1.00001e-05
1.00001e-05
1.00001e-05
1.00001e-05
1.00001e-05
1e-05
9.99998e-06
9.99995e-06
9.9999e-06
9.99984e-06
9.99983e-06
9.99981e-06
9.99983e-06
9.99987e-06
1e-05
1.00001e-05
1.00003e-05
1.00003e-05
1.00004e-05
1.00004e-05
1.00004e-05
1.00002e-05
1.00001e-05
9.99994e-06
9.99978e-06
9.99958e-06
9.99946e-06
9.99947e-06
9.99958e-06
9.99966e-06
9.99973e-06
9.99975e-06
9.99976e-06
9.99977e-06
9.99987e-06
9.99999e-06
1.00001e-05
1.00002e-05
1.00002e-05
1.00002e-05
1.00002e-05
1e-05
1e-05
1.00001e-05
1.00002e-05
1.00003e-05
1.00005e-05
1.00007e-05
1.00011e-05
1.00015e-05
1.00016e-05
1.00009e-05
9.99863e-06
9.99476e-06
9.98917e-06
9.98402e-06
9.98177e-06
9.9857e-06
1.00001e-05
1.00242e-05
1.0061e-05
1.00995e-05
1.01397e-05
1.01627e-05
1.01581e-05
1.0119e-05
1.00311e-05
9.90859e-06
9.72824e-06
9.5377e-06
9.29711e-06
9.09471e-06
8.9292e-06
8.85987e-06
8.89398e-06
9.03843e-06
9.38405e-06
9.77273e-06
1.03906e-05
1.10047e-05
1.19141e-05
1.27627e-05
1.39922e-05
1.50971e-05
1.65991e-05
1.79487e-05
1.98058e-05
2.13268e-05
2.28709e-05
2.45391e-05
2.63463e-05
2.80649e-05
2.98031e-05
3.15418e-05
3.3339e-05
3.51406e-05
3.6795e-05
3.85523e-05
4.03973e-05
4.22467e-05
4.39964e-05
4.58723e-05
4.81763e-05
5.0115e-05
5.19521e-05
5.35892e-05
5.54547e-05
5.72571e-05
5.88908e-05
6.05881e-05
6.22541e-05
6.38624e-05
6.52443e-05
6.66005e-05
6.79193e-05
6.89996e-05
7.01222e-05
7.09718e-05
7.19755e-05
7.29559e-05
7.3832e-05
7.47681e-05
7.57884e-05
7.66651e-05
7.76423e-05
7.83611e-05
7.92048e-05
7.99486e-05
8.05176e-05
8.10898e-05
8.17093e-05
8.21893e-05
8.27815e-05
8.31957e-05
8.37437e-05
8.42467e-05
8.46012e-05
8.4919e-05
8.525e-05
8.5484e-05
8.56118e-05
8.57422e-05
8.59669e-05
8.61972e-05
8.64085e-05
8.66721e-05
8.69967e-05
8.72554e-05
8.7369e-05
8.73636e-05
8.72604e-05
8.6968e-05
8.64938e-05
8.58731e-05
8.5179e-05
8.43446e-05
8.34451e-05
8.25019e-05
8.16421e-05
8.08338e-05
8.01306e-05
7.94527e-05
7.87727e-05
7.8e-05
7.71633e-05
7.61963e-05
7.51767e-05
7.40882e-05
7.29574e-05
7.15483e-05
6.98882e-05
6.80831e-05
6.64758e-05
6.51552e-05
6.4201e-05
6.33397e-05
6.2437e-05
6.13507e-05
6.04355e-05
5.96207e-05
5.86847e-05
5.78154e-05
5.72954e-05
5.68059e-05
5.66845e-05
5.69789e-05
5.7521e-05
5.83691e-05
5.92272e-05
5.98993e-05
6.05417e-05
6.1183e-05
6.18526e-05
6.24424e-05
6.30287e-05
6.36696e-05
6.437e-05
6.54867e-05
6.70434e-05
6.90038e-05
7.1308e-05
7.41901e-05
7.75397e-05
8.15419e-05
8.54273e-05
9.05166e-05
9.52287e-05
0.000100794
0.000105783
0.000110623
0.00011402
0.000115985
0.000114255
0.000111082
0.000107191
0.000102605
9.79494e-05
9.10895e-05
8.41919e-05
8.00919e-05
8.70283e-05
0.00011451
0.000175699
0.000245477
0.000296961
0.000329308
0.000317821
0.00037249
0.000376682
0.000334479
0.000369011
0.000380258
0.000359783
0.000339877
0.000319078
0.000332931
0.000328335
0.000337141
0.000318362
0.000343571
0.000341369
0.000365437
0.000342815
0.000355316
0.000347909
0.000344728
0.000330492
0.000339811
0.000332029
0.000332479
0.000323781
0.000338076
0.000336173
0.000339068
0.000326693
0.000332821
0.00033692
0.000332047
0.000328161
0.000336922
0.000337276
0.00034164
0.000326123
0.000358053
0.000340633
0.000371642
0.000358896
0.00035262
0.00036087
0.000342036
0.000347469
0.000329055
0.000338936
0.000356587
0.000378976
0.000338037
0.000334822
0.000355598
0.000341737
0.000344553
0.000355435
0.000335742
0.000323794
0.000347658
0.000353435
0.000327353
0.000319968
0.000332268
0.000337973
0.000317499
0.000330116
0.000353262
0.000343646
0.00033739
0.000349248
0.000345083
0.000357291
0.000352345
0.00032736
0.000350842
0.000387208
0.000345769
0.00036644
0.000352616
0.000339708
0.000389302
0.000352486
0.000342429