/*--------------------------------*- C++ -*----------------------------------*\
| =========                 |                                                 |
| \\      /  F ield         | foam-extend: Open Source CFD                    |
|  \\    /   O peration     | Version:     4.0                                |
|   \\  /    A nd           | Web:         http://www.foam-extend.org         |
|    \\/     M anipulation  |                                                 |
\*---------------------------------------------------------------------------*/
FoamFile
{
    version     2.0;
    format      ascii;
    class       volScalarField;
    location    "0.023";
    object      h;
}
// * * * * * * * * * * * * * * * * * * * * * * * * * * * * * * * * * * * * * //

dimensions      [0 1 0 0 0 0 0];

internalField   nonuniform List<scalar> 
176451
(
1.00019e-05
9.99659e-06
9.9942e-06
9.99926e-06
1.00021e-05
1.00022e-05
9.99855e-06
9.99802e-06
1.00012e-05
1.00037e-05
1.00034e-05
1.00066e-05
1.00005e-05
9.99642e-06
9.99784e-06
9.99677e-06
1.00016e-05
1.00025e-05
1.00046e-05
1.00016e-05
1e-05
1.00008e-05
1.00006e-05
1.00028e-05
1.00043e-05
1.00014e-05
1.00005e-05
9.9982e-06
9.99723e-06
1.00008e-05
9.99818e-06
1.00006e-05
9.99867e-06
9.99591e-06
9.99884e-06
1.00079e-05
1.00052e-05
1.00018e-05
9.9962e-06
9.99885e-06
9.99767e-06
1.00026e-05
9.9965e-06
1.00005e-05
1.00022e-05
1.00002e-05
1.00002e-05
1.00007e-05
1.00046e-05
1.00016e-05
1.0003e-05
9.99665e-06
9.99796e-06
9.9986e-06
9.99965e-06
1.00029e-05
1.00009e-05
9.99948e-06
9.99902e-06
1.00017e-05
1.00011e-05
9.99413e-06
9.99589e-06
1.00016e-05
1.00001e-05
1.00046e-05
1.0002e-05
1.00004e-05
9.99992e-06
9.99936e-06
1.00003e-05
1.00022e-05
1.00002e-05
1.00037e-05
1.00024e-05
1.00012e-05
1.0001e-05
1.00001e-05
9.99698e-06
9.99765e-06
9.9981e-06
1.00006e-05
9.99875e-06
9.99695e-06
1.00004e-05
9.99934e-06
1.0002e-05
1.00021e-05
1.00019e-05
9.99866e-06
1.00056e-05
9.99903e-06
1.00047e-05
9.9993e-06
9.99792e-06
9.99707e-06
9.99699e-06
1.00016e-05
1.00078e-05
9.99439e-06
1.00005e-05
9.9994e-06
1.00031e-05
9.99799e-06
1.00026e-05
9.99924e-06
1.00027e-05
1.00035e-05
1.00031e-05
1.00033e-05
1.00044e-05
1.00017e-05
1.00024e-05
1.00025e-05
1.00031e-05
1.0005e-05
1.00049e-05
1.00002e-05
1.00036e-05
1.00009e-05
9.99876e-06
9.99342e-06
9.99914e-06
9.99636e-06
9.9991e-06
1.00007e-05
9.9975e-06
1.0003e-05
9.99947e-06
1.00028e-05
1.00021e-05
1.00022e-05
1.00011e-05
9.99993e-06
1.00022e-05
9.99715e-06
1.00006e-05
9.99809e-06
1.00012e-05
9.99997e-06
9.99977e-06
9.9995e-06
1.00043e-05
1.00023e-05
9.99691e-06
1.00001e-05
1.00032e-05
1.00001e-05
1.00004e-05
9.99851e-06
1.00053e-05
1.00001e-05
9.99822e-06
1.00006e-05
9.9976e-06
1.00016e-05
9.99908e-06
1.0001e-05
1.00038e-05
1.00003e-05
9.99989e-06
9.99894e-06
9.99867e-06
1.00006e-05
1.00001e-05
1.00022e-05
1.00011e-05
1.00011e-05
9.99846e-06
9.99982e-06
9.99864e-06
1.00001e-05
1.00056e-05
9.99723e-06
9.99927e-06
9.99711e-06
1.00032e-05
9.99466e-06
1.00035e-05
1.00027e-05
1.00004e-05
9.99907e-06
9.99807e-06
1.0001e-05
9.99798e-06
9.9989e-06
1.00032e-05
1.00071e-05
1.00045e-05
1.00003e-05
9.99485e-06
9.98833e-06
9.98203e-06
9.97702e-06
9.97413e-06
9.97396e-06
9.97626e-06
9.98014e-06
9.98474e-06
9.98901e-06
9.9925e-06
9.99491e-06
9.99647e-06
9.99743e-06
9.99813e-06
9.99868e-06
9.99922e-06
9.9997e-06
1.00001e-05
1.00001e-05
1e-05
9.99979e-06
9.99967e-06
9.99976e-06
1.00002e-05
1.0001e-05
1.00022e-05
1.00035e-05
1.00049e-05
1.00062e-05
1.00075e-05
1.00086e-05
1.00097e-05
1.00108e-05
1.0012e-05
1.00134e-05
1.00149e-05
1.00163e-05
1.00174e-05
1.00176e-05
1.00167e-05
1.00146e-05
1.00115e-05
1.00079e-05
1.00043e-05
1.00014e-05
9.99933e-06
9.99824e-06
9.99807e-06
9.99842e-06
9.99907e-06
9.99977e-06
1.00004e-05
1.0001e-05
1.00014e-05
1.00016e-05
1.00017e-05
1.00016e-05
1.00013e-05
1.00009e-05
1.00005e-05
1.00002e-05
9.99997e-06
9.99976e-06
9.99953e-06
9.99903e-06
9.99812e-06
9.99669e-06
9.995e-06
9.99321e-06
9.99161e-06
9.99045e-06
9.9901e-06
9.99054e-06
9.99166e-06
9.99331e-06
9.99515e-06
9.99692e-06
9.99834e-06
9.99937e-06
1.00001e-05
1.00006e-05
1.00011e-05
1.00019e-05
1.00028e-05
1.00037e-05
1.00041e-05
1.00039e-05
1.00031e-05
1.00017e-05
9.99986e-06
9.99788e-06
9.99614e-06
9.99462e-06
9.99337e-06
9.99234e-06
9.99159e-06
9.99093e-06
9.9903e-06
9.98967e-06
9.98919e-06
9.98879e-06
9.98853e-06
9.98847e-06
9.98871e-06
9.98921e-06
9.98999e-06
9.99113e-06
9.99258e-06
9.99416e-06
9.99561e-06
9.9968e-06
9.99761e-06
9.99801e-06
9.99815e-06
9.9983e-06
9.99871e-06
9.99944e-06
1.00005e-05
1.00017e-05
1.0003e-05
1.00039e-05
1.00043e-05
1.00042e-05
1.00038e-05
1.00031e-05
1.00025e-05
1.00022e-05
1.00023e-05
1.00027e-05
1.00033e-05
1.00039e-05
1.00046e-05
1.00051e-05
1.00056e-05
1.00061e-05
1.00065e-05
1.0007e-05
1.00073e-05
1.00075e-05
1.00077e-05
1.00079e-05
1.00081e-05
1.00083e-05
1.00086e-05
1.00089e-05
1.0009e-05
1.0009e-05
1.00085e-05
1.00076e-05
1.00061e-05
1.00041e-05
1.00016e-05
9.99892e-06
9.99629e-06
9.99383e-06
9.99168e-06
9.99001e-06
9.98896e-06
9.98857e-06
9.9888e-06
9.98964e-06
9.99099e-06
9.9928e-06
9.99494e-06
9.99746e-06
1.00002e-05
1.0003e-05
1.00054e-05
1.00069e-05
1.00071e-05
1.00058e-05
1.00032e-05
9.99987e-06
9.99665e-06
9.9941e-06
9.99263e-06
9.99236e-06
9.99311e-06
9.99451e-06
9.99606e-06
9.99743e-06
9.9984e-06
9.99894e-06
9.99908e-06
9.99904e-06
9.99904e-06
9.99927e-06
9.99971e-06
1.00004e-05
1.00013e-05
1.00024e-05
1.00034e-05
1.00043e-05
1.00052e-05
1.0006e-05
1.00067e-05
1.00071e-05
1.00073e-05
1.00073e-05
1.00069e-05
1.00061e-05
1.0005e-05
1.00037e-05
1.00023e-05
1.00008e-05
9.9996e-06
9.99866e-06
9.998e-06
9.99764e-06
9.99755e-06
9.99769e-06
9.99792e-06
9.99829e-06
9.99877e-06
9.99933e-06
9.99979e-06
1.00001e-05
1.00002e-05
1.00003e-05
1.00003e-05
1.00004e-05
1.00009e-05
1.00017e-05
1.00028e-05
1.0004e-05
1.00053e-05
1.00064e-05
1.00072e-05
1.00076e-05
1.00075e-05
1.0007e-05
1.00061e-05
1.0005e-05
1.0004e-05
1.00033e-05
1.00029e-05
1.00031e-05
1.00037e-05
1.00047e-05
1.00059e-05
1.00072e-05
1.00084e-05
1.00092e-05
1.00096e-05
1.00094e-05
1.00089e-05
1.0008e-05
1.00067e-05
1.00057e-05
1.00049e-05
1.00047e-05
1.00048e-05
1.00054e-05
1.00062e-05
1.00069e-05
1.00074e-05
1.00077e-05
1.00079e-05
1.00077e-05
1.00069e-05
1.00054e-05
1.00029e-05
9.99961e-06
9.99541e-06
9.99116e-06
9.98727e-06
9.98438e-06
9.98246e-06
9.98197e-06
9.98276e-06
9.98457e-06
9.98727e-06
9.99033e-06
9.99367e-06
9.99687e-06
9.9999e-06
1.00024e-05
1.00043e-05
1.00057e-05
1.00066e-05
1.00071e-05
1.00074e-05
1.00077e-05
1.00079e-05
1.00082e-05
1.00084e-05
1.00086e-05
1.00086e-05
1.00085e-05
1.00083e-05
1.0008e-05
1.00077e-05
1.00073e-05
1.00067e-05
1.0006e-05
1.0005e-05
1.0004e-05
1.0003e-05
1.00022e-05
1.00016e-05
1.00014e-05
1.00015e-05
1.00017e-05
1.00017e-05
1.00016e-05
1.00013e-05
1.00008e-05
1.00003e-05
9.9998e-06
9.99958e-06
9.99968e-06
1.00001e-05
1.00009e-05
1.00018e-05
1.00027e-05
1.00034e-05
1.00037e-05
1.00037e-05
1.00033e-05
1.00026e-05
1.00017e-05
1.00008e-05
9.99967e-06
9.9984e-06
9.99729e-06
9.99634e-06
9.99566e-06
9.99533e-06
9.99556e-06
9.9963e-06
9.99741e-06
9.99878e-06
1.00002e-05
1.00015e-05
1.00024e-05
1.00028e-05
1.00026e-05
1.00017e-05
1.00005e-05
9.99897e-06
9.99765e-06
9.9968e-06
9.99662e-06
9.99709e-06
9.99799e-06
9.99914e-06
1.00003e-05
1.00014e-05
1.00022e-05
1.00025e-05
1.00024e-05
1.00018e-05
1.00005e-05
9.99884e-06
9.99707e-06
9.99547e-06
9.99427e-06
9.99357e-06
9.99333e-06
9.99331e-06
9.99322e-06
9.99297e-06
9.99264e-06
9.99238e-06
9.99236e-06
9.99282e-06
9.99383e-06
9.99543e-06
9.99747e-06
1e-05
1.0003e-05
1.00064e-05
1.00101e-05
1.0014e-05
1.00176e-05
1.00205e-05
1.00224e-05
1.0023e-05
1.00224e-05
1.00209e-05
1.00189e-05
1.00169e-05
1.00152e-05
1.00138e-05
1.00124e-05
1.00108e-05
1.00087e-05
1.0006e-05
1.00028e-05
9.9992e-06
9.99578e-06
9.99283e-06
9.99071e-06
9.98956e-06
9.98942e-06
9.99005e-06
9.99103e-06
9.99203e-06
9.99276e-06
9.9931e-06
9.99297e-06
9.9925e-06
9.9919e-06
9.99132e-06
9.99084e-06
9.99061e-06
9.99071e-06
9.99119e-06
9.99204e-06
9.99334e-06
9.99508e-06
9.99727e-06
9.99972e-06
1.00024e-05
1.0005e-05
1.00075e-05
1.00096e-05
1.00113e-05
1.00125e-05
1.00133e-05
1.00134e-05
1.00131e-05
1.00123e-05
1.00109e-05
1.00091e-05
1.00068e-05
1.00045e-05
1.00023e-05
1.00006e-05
9.99959e-06
9.99954e-06
1.00004e-05
1.0002e-05
1.0004e-05
1.00059e-05
1.00074e-05
1.0008e-05
1.00076e-05
1.00062e-05
1.0004e-05
1.00012e-05
9.99833e-06
9.99591e-06
9.9943e-06
9.99353e-06
9.99378e-06
9.99477e-06
9.99608e-06
9.99721e-06
9.99769e-06
9.9974e-06
9.99652e-06
9.99542e-06
9.99502e-06
9.99591e-06
9.99843e-06
1.00026e-05
1.00074e-05
1.00122e-05
1.00159e-05
1.0018e-05
1.00182e-05
1.00167e-05
1.00143e-05
1.0011e-05
1.00075e-05
1.00039e-05
1.00005e-05
9.99701e-06
9.99411e-06
9.992e-06
9.99116e-06
9.99186e-06
9.99429e-06
9.99847e-06
1.00037e-05
1.00097e-05
1.00151e-05
1.00196e-05
1.00222e-05
1.00229e-05
1.00218e-05
1.0019e-05
1.00156e-05
1.00117e-05
1.00083e-05
1.00053e-05
1.0003e-05
1.0001e-05
9.99943e-06
9.998e-06
9.99683e-06
9.99592e-06
9.99547e-06
9.99546e-06
9.99579e-06
9.99634e-06
9.99695e-06
9.99753e-06
9.99789e-06
9.99795e-06
9.99774e-06
9.99718e-06
9.99619e-06
9.99462e-06
9.99251e-06
9.99005e-06
9.98745e-06
9.98496e-06
9.98297e-06
9.9817e-06
9.98106e-06
9.98086e-06
9.98083e-06
9.98075e-06
9.98043e-06
9.97993e-06
9.97946e-06
9.97918e-06
9.97939e-06
9.9802e-06
9.98167e-06
9.98387e-06
9.9867e-06
9.99029e-06
9.99442e-06
9.99903e-06
1.00036e-05
1.0008e-05
1.00114e-05
1.00134e-05
1.00138e-05
1.00128e-05
1.00108e-05
1.00082e-05
1.00057e-05
1.00035e-05
1.00018e-05
1.00003e-05
9.99893e-06
9.9971e-06
9.99461e-06
9.99148e-06
9.9881e-06
9.98479e-06
9.98204e-06
9.98017e-06
9.97941e-06
9.97969e-06
9.98073e-06
9.98229e-06
9.98407e-06
9.98593e-06
9.98768e-06
9.9894e-06
9.99121e-06
9.99334e-06
9.99584e-06
9.99885e-06
1.00024e-05
1.00064e-05
1.00107e-05
1.0015e-05
1.00189e-05
1.00222e-05
1.00243e-05
1.00252e-05
1.00248e-05
1.00234e-05
1.00214e-05
1.0019e-05
1.00168e-05
1.00147e-05
1.00124e-05
1.00097e-05
1.00064e-05
1.00021e-05
9.99697e-06
9.99118e-06
9.98553e-06
9.98043e-06
9.97659e-06
9.9745e-06
9.97443e-06
9.9762e-06
9.97922e-06
9.98282e-06
9.98615e-06
9.98867e-06
9.99e-06
9.99027e-06
9.98987e-06
9.98927e-06
9.98889e-06
9.98902e-06
9.98967e-06
9.99063e-06
9.99149e-06
9.99204e-06
9.99221e-06
9.9922e-06
9.99236e-06
9.99321e-06
9.99506e-06
9.99797e-06
1.00015e-05
1.00052e-05
1.00082e-05
1.00102e-05
1.00109e-05
1.00103e-05
1.00088e-05
1.00068e-05
1.00046e-05
1.00025e-05
1.00006e-05
9.99885e-06
9.99721e-06
9.99559e-06
9.99395e-06
9.99217e-06
9.9902e-06
9.98815e-06
9.98626e-06
9.98469e-06
9.98364e-06
9.98328e-06
9.98364e-06
9.98462e-06
9.98603e-06
9.9878e-06
9.98972e-06
9.99174e-06
9.99394e-06
9.99636e-06
9.99911e-06
1.00021e-05
1.00053e-05
1.00083e-05
1.00109e-05
1.00126e-05
1.00132e-05
1.00126e-05
1.00108e-05
1.00083e-05
1.00052e-05
1.00025e-05
1.00005e-05
9.99942e-06
9.99929e-06
1.00001e-05
1.00016e-05
1.00034e-05
1.0005e-05
1.00062e-05
1.00068e-05
1.00067e-05
1.00059e-05
1.00048e-05
1.00037e-05
1.00028e-05
1.00022e-05
1.00021e-05
1.00024e-05
1.00031e-05
1.00039e-05
1.00048e-05
1.00055e-05
1.00059e-05
1.00057e-05
1.0005e-05
1.00039e-05
1.00025e-05
1.00006e-05
9.99889e-06
9.99709e-06
9.9956e-06
9.99413e-06
9.99277e-06
9.99127e-06
9.98951e-06
9.98734e-06
9.98507e-06
9.9827e-06
9.98051e-06
9.97863e-06
9.97735e-06
9.97674e-06
9.97684e-06
9.97761e-06
9.97904e-06
9.98114e-06
9.98372e-06
9.98672e-06
9.9898e-06
9.99284e-06
9.99549e-06
9.99774e-06
9.99939e-06
1.00005e-05
1.0001e-05
1.00011e-05
1.00008e-05
1.00005e-05
1e-05
9.99965e-06
9.9993e-06
9.99897e-06
9.99859e-06
9.99806e-06
9.99743e-06
9.99672e-06
9.99601e-06
9.99557e-06
9.9956e-06
9.9963e-06
9.9977e-06
9.99976e-06
1.00022e-05
1.00049e-05
1.00073e-05
1.00094e-05
1.00107e-05
1.00114e-05
1.00115e-05
1.00111e-05
1.00103e-05
1.00091e-05
1.00077e-05
1.00057e-05
1.00035e-05
1.0001e-05
9.99825e-06
9.99548e-06
9.99291e-06
9.99079e-06
9.98935e-06
9.9886e-06
9.98847e-06
9.9889e-06
9.98976e-06
9.99089e-06
9.99209e-06
9.9933e-06
9.99444e-06
9.99548e-06
9.99628e-06
9.99692e-06
9.99748e-06
9.9981e-06
9.99885e-06
9.99985e-06
1.00012e-05
1.00028e-05
1.00046e-05
1.00065e-05
1.00083e-05
1.00098e-05
1.00108e-05
1.00111e-05
1.00108e-05
1.001e-05
1.00088e-05
1.00076e-05
1.00068e-05
1.00066e-05
1.00069e-05
1.00075e-05
1.00083e-05
1.00088e-05
1.00087e-05
1.0008e-05
1.00067e-05
1.00051e-05
1.00033e-05
1.00017e-05
1.00004e-05
9.99956e-06
9.99902e-06
9.99871e-06
9.9985e-06
9.99827e-06
9.99791e-06
9.99754e-06
9.99739e-06
9.99778e-06
9.99886e-06
1.00007e-05
1.00033e-05
1.0006e-05
1.00083e-05
1.00095e-05
1.00093e-05
1.00075e-05
1.00045e-05
1.00007e-05
9.99709e-06
9.99403e-06
9.99188e-06
9.99067e-06
9.99022e-06
9.99016e-06
9.99011e-06
9.98989e-06
9.98952e-06
9.98911e-06
9.98881e-06
9.98882e-06
9.98924e-06
9.9901e-06
9.99125e-06
9.99267e-06
9.99437e-06
9.9965e-06
9.99903e-06
1.00021e-05
1.00056e-05
1.00093e-05
1.00127e-05
1.00154e-05
1.00169e-05
1.00169e-05
1.0015e-05
1.00113e-05
1.00064e-05
1.00005e-05
9.99453e-06
9.98917e-06
9.98528e-06
9.98328e-06
9.98351e-06
9.986e-06
9.99039e-06
9.99566e-06
1.00012e-05
1.00055e-05
1.00081e-05
1.00084e-05
1.00065e-05
1.00031e-05
9.99867e-06
9.9944e-06
9.99063e-06
9.98835e-06
9.98754e-06
9.9881e-06
9.98964e-06
9.99162e-06
9.99369e-06
9.99548e-06
9.99691e-06
9.99789e-06
9.99858e-06
9.99908e-06
9.99955e-06
1.00001e-05
1.00007e-05
1.00014e-05
1.00021e-05
1.00026e-05
1.00029e-05
1.0003e-05
1.00027e-05
1.00021e-05
1.00012e-05
1.00001e-05
9.9988e-06
9.99768e-06
9.99658e-06
9.99558e-06
9.9944e-06
9.9931e-06
9.99138e-06
9.98924e-06
9.98648e-06
9.98374e-06
9.98116e-06
9.97953e-06
9.97919e-06
9.98068e-06
9.98424e-06
9.98943e-06
9.99632e-06
1.00035e-05
1.00111e-05
1.00175e-05
1.00229e-05
1.00266e-05
1.00288e-05
1.00294e-05
1.00288e-05
1.00274e-05
1.00251e-05
1.00226e-05
1.00196e-05
1.00168e-05
1.00139e-05
1.00113e-05
1.00088e-05
1.00067e-05
1.00048e-05
1.00032e-05
1.00018e-05
1.00009e-05
1.00004e-05
1.00003e-05
1.00005e-05
1.00011e-05
1.00016e-05
1.00019e-05
1.00016e-05
1.00006e-05
9.99854e-06
9.99579e-06
9.99248e-06
9.98921e-06
9.98626e-06
9.98424e-06
9.98345e-06
9.98426e-06
9.98668e-06
9.99037e-06
9.9951e-06
9.99996e-06
1.00044e-05
1.00077e-05
1.00094e-05
1.00094e-05
1.00076e-05
1.00048e-05
1.00012e-05
9.99773e-06
9.99474e-06
9.99273e-06
9.99173e-06
9.9916e-06
9.99207e-06
9.99286e-06
9.99372e-06
9.99438e-06
9.99483e-06
9.9951e-06
9.9953e-06
9.9955e-06
9.99585e-06
9.99646e-06
9.99733e-06
9.99827e-06
9.99915e-06
9.99976e-06
9.99991e-06
9.99945e-06
9.99837e-06
9.99684e-06
9.99502e-06
9.9932e-06
9.99169e-06
9.99081e-06
9.99073e-06
9.99145e-06
9.99294e-06
9.995e-06
9.99741e-06
9.99978e-06
1.00019e-05
1.00036e-05
1.00049e-05
1.00056e-05
1.00058e-05
1.00057e-05
1.00054e-05
1.00047e-05
1.00037e-05
1.00023e-05
1.00006e-05
9.99842e-06
9.99604e-06
9.99382e-06
9.99205e-06
9.991e-06
9.9909e-06
9.99187e-06
9.99385e-06
9.99649e-06
9.99949e-06
1.00024e-05
1.00049e-05
1.00066e-05
1.00074e-05
1.00072e-05
1.00064e-05
1.00051e-05
1.00035e-05
1.00021e-05
1.00009e-05
1.00002e-05
9.99981e-06
9.99981e-06
9.99999e-06
1.00001e-05
1e-05
9.99967e-06
9.99895e-06
9.99773e-06
9.99606e-06
9.99412e-06
9.99206e-06
9.9902e-06
9.98887e-06
9.98846e-06
9.98906e-06
9.99058e-06
9.99286e-06
9.99553e-06
9.99827e-06
1.00006e-05
1.00025e-05
1.00037e-05
1.00044e-05
1.00045e-05
1.00042e-05
1.00037e-05
1.00031e-05
1.00026e-05
1.00022e-05
1.0002e-05
1.00021e-05
1.00025e-05
1.0003e-05
1.00037e-05
1.00044e-05
1.0005e-05
1.00053e-05
1.00051e-05
1.00047e-05
1.00037e-05
1.00026e-05
1.00014e-05
1.00004e-05
9.99966e-06
9.99947e-06
9.99985e-06
1.00007e-05
1.0002e-05
1.00033e-05
1.00045e-05
1.00053e-05
1.00057e-05
1.00055e-05
1.00048e-05
1.00037e-05
1.00023e-05
1.0001e-05
9.99983e-06
9.99905e-06
9.9986e-06
9.99859e-06
9.99886e-06
9.99928e-06
9.99961e-06
9.99969e-06
9.99942e-06
9.99882e-06
9.99774e-06
9.99641e-06
9.99488e-06
9.9935e-06
9.99226e-06
9.99149e-06
9.99117e-06
9.99148e-06
9.99241e-06
9.99381e-06
9.99552e-06
9.99725e-06
9.99888e-06
1.00001e-05
1.00009e-05
1.00013e-05
1.00011e-05
1.00007e-05
9.99992e-06
9.99912e-06
9.99826e-06
9.99762e-06
9.99715e-06
9.99702e-06
9.99714e-06
9.99755e-06
9.99816e-06
9.99891e-06
9.99971e-06
1.00005e-05
1.00011e-05
1.00016e-05
1.00018e-05
1.00018e-05
1.00015e-05
1.00012e-05
1.00009e-05
1.00008e-05
1.00009e-05
1.00013e-05
1.00019e-05
1.00026e-05
1.00034e-05
1.00039e-05
1.00042e-05
1.00042e-05
1.00038e-05
1.00033e-05
1.00025e-05
1.00018e-05
1.0001e-05
1.00003e-05
9.99958e-06
9.999e-06
9.99848e-06
9.99805e-06
9.99764e-06
9.99743e-06
9.99736e-06
9.99748e-06
9.99772e-06
9.99804e-06
9.99842e-06
9.99883e-06
9.99923e-06
9.99948e-06
9.99958e-06
9.9995e-06
9.99922e-06
9.99865e-06
9.99786e-06
9.99702e-06
9.99629e-06
9.99583e-06
9.99581e-06
9.99634e-06
9.99741e-06
9.99882e-06
1.00004e-05
1.0002e-05
1.00034e-05
1.00042e-05
1.00045e-05
1.00041e-05
1.00033e-05
1.0002e-05
1.00004e-05
9.99879e-06
9.99737e-06
9.99627e-06
9.99565e-06
9.99567e-06
9.99634e-06
9.99751e-06
9.9991e-06
1.00009e-05
1.00026e-05
1.00041e-05
1.0005e-05
1.00053e-05
1.00048e-05
1.00035e-05
1.00014e-05
9.99892e-06
9.99626e-06
9.9938e-06
9.9919e-06
9.99095e-06
9.99109e-06
9.9923e-06
9.99447e-06
9.99724e-06
1.00003e-05
1.0003e-05
1.00051e-05
1.00063e-05
1.00063e-05
1.00053e-05
1.00034e-05
1.00011e-05
9.99876e-06
9.99671e-06
9.99524e-06
9.99463e-06
9.99494e-06
9.99602e-06
9.99771e-06
9.99968e-06
1.00017e-05
1.00034e-05
1.00045e-05
1.00051e-05
1.00051e-05
1.00045e-05
1.00035e-05
1.00022e-05
1.00008e-05
9.99931e-06
9.99791e-06
9.9968e-06
9.99606e-06
9.99575e-06
9.99597e-06
9.99678e-06
9.99821e-06
1.00001e-05
1.00023e-05
1.00046e-05
1.00068e-05
1.00086e-05
1.00098e-05
1.00102e-05
1.001e-05
1.0009e-05
1.00074e-05
1.00054e-05
1.00032e-05
1.00008e-05
9.99859e-06
9.99675e-06
9.99589e-06
9.9962e-06
9.99776e-06
9.99999e-06
1.00014e-05
9.99999e-06
9.99435e-06
9.98559e-06
9.97868e-06
9.97944e-06
9.98539e-06
9.99782e-06
1.00632e-05
1.02013e-05
1.0183e-05
1.00051e-05
9.43606e-06
1.04144e-05
2.57344e-05
4.43227e-05
5.98305e-05
7.4236e-05
8.63599e-05
9.7525e-05
0.000107001
0.000115927
0.00012367
0.000130785
0.000136598
0.000141804
0.000146206
0.000150293
0.000153336
0.000157023
0.000161529
0.00016431
0.000167969
0.000171366
0.000175161
0.000171504
0.000180753
0.00016945
0.000173288
0.000175367
0.000164273
0.000172661
0.00017877
0.000177487
0.000198434
0.00018341
0.000193348
0.000200104
0.000204175
0.000197899
0.000205492
0.000203742
0.000212342
0.0002195
0.000207352
0.000209853
0.000203986
0.000204285
0.00020717
0.00020997
0.000197253
0.000200606
0.000213539
0.000214566
0.000211605
0.000214864
0.000205196
0.000218452
0.000203822
0.000212794
0.000225063
0.000206948
0.000210104
0.000200992
0.000209472
0.000208091
0.000219621
0.00021618
0.000214756
0.000228846
0.000199516
0.000201498
0.000193558
0.000201832
0.000185898
0.000192558
0.000194487
0.000196935
0.000198057
0.000203911
0.000204131
0.000208934
0.000202469
0.000207002
0.000198371
0.000214057
0.00020932
0.000202469
0.000197884
0.000204753
0.00020241
0.000224027
0.000205993
0.000194122
0.00019398
0.000219665
0.000205227
0.000192034
0.000186633
0.000195109
0.000198155
0.000189802
0.000198232
0.000202548
0.000207518
0.000206527
0.000228097
0.000199916
0.000191505
0.0001846
0.000206251
0.000205886
0.000183197
0.000189964
0.000205156
0.000209148
0.000205082
0.000211215
0.000215365
0.000218854
0.000210213
0.000219498
0.00023208
0.000218197
0.000223753
0.000223203
0.000214636
0.000216142
0.000221233
0.000254438
0.000217171
0.000211393
0.000203533
0.000245309
0.000213552
0.000215231
0.000216813
0.000221841
0.000218196
0.000204933
0.000209356
0.000204203
0.000209122
0.000200179
0.000213466
0.000209993
0.000203338
0.000209959
0.000211006
0.000224018
0.000224559
0.000229523
0.000217036
0.000237019
0.000214733
0.0002399
0.000238519
0.00024283
0.000236276
0.000231318
0.000218069
0.000213147
0.000206912
0.000229082
0.000196355
0.000193993
0.00017325
0.000166573
0.000160998
0.000148356
0.000148807
0.000140317
0.000128691
0.000112675
9.56162e-05
7.76147e-05
6.3406e-05
5.72337e-05
5.9822e-05
6.66656e-05
7.34555e-05
7.75297e-05
7.86437e-05
7.73509e-05
7.40015e-05
6.99124e-05
6.56801e-05
6.30335e-05
6.2483e-05
6.38974e-05
6.63824e-05
6.86775e-05
7.0395e-05
7.11086e-05
7.10093e-05
7.04033e-05
6.95716e-05
6.88938e-05
6.85359e-05
6.85141e-05
6.87057e-05
6.89494e-05
6.9166e-05
6.92488e-05
6.91698e-05
6.89528e-05
6.8694e-05
6.84704e-05
6.83011e-05
6.82208e-05
6.82486e-05
6.83423e-05
6.84644e-05
6.8565e-05
6.86458e-05
6.86775e-05
6.86716e-05
6.86423e-05
6.86503e-05
6.86899e-05
6.87146e-05
6.87542e-05
6.87812e-05
6.88082e-05
6.88187e-05
6.88076e-05
6.88125e-05
6.88414e-05
6.87755e-05
6.883e-05
6.88919e-05
6.88671e-05
6.89366e-05
6.88887e-05
6.88696e-05
6.88261e-05
6.87718e-05
6.8735e-05
6.87013e-05
6.87052e-05
6.87215e-05
6.86755e-05
6.86713e-05
6.86516e-05
6.86456e-05
6.85873e-05
6.85764e-05
6.8549e-05
6.85353e-05
6.84884e-05
6.85336e-05
6.85131e-05
6.84924e-05
6.85347e-05
6.85216e-05
6.85413e-05
6.85634e-05
6.85474e-05
6.86189e-05
6.86244e-05
6.86962e-05
6.87308e-05
6.87846e-05
6.88069e-05
6.87225e-05
6.86974e-05
6.85861e-05
6.85067e-05
6.84261e-05
6.83974e-05
6.83567e-05
6.83551e-05
6.84006e-05
6.85085e-05
6.86546e-05
6.88641e-05
6.90294e-05
6.91184e-05
6.91457e-05
6.90759e-05
6.88813e-05
6.86285e-05
6.83815e-05
6.81926e-05
6.8094e-05
6.81556e-05
6.84118e-05
6.87936e-05
6.91768e-05
6.95049e-05
6.97137e-05
6.96627e-05
6.92479e-05
6.8523e-05
6.76699e-05
6.69792e-05
6.6615e-05
6.67459e-05
6.76538e-05
6.94245e-05
7.15671e-05
7.33287e-05
7.4259e-05
7.39898e-05
7.10634e-05
6.27771e-05
4.75715e-05
2.98821e-05
2.3698e-05
2.42019e-05
2.65964e-05
2.77134e-05
2.8304e-05
2.88161e-05
2.81605e-05
2.61284e-05
2.36079e-05
2.19974e-05
2.12379e-05
2.08226e-05
2.07751e-05
2.13582e-05
2.2284e-05
2.31557e-05
2.40061e-05
2.49817e-05
2.61016e-05
2.72198e-05
2.83134e-05
2.93549e-05
3.04027e-05
3.14629e-05
3.25741e-05
3.36693e-05
3.47354e-05
3.57275e-05
3.66914e-05
3.76037e-05
3.84886e-05
3.93398e-05
4.02282e-05
4.11392e-05
4.21022e-05
4.30977e-05
4.41501e-05
4.5186e-05
4.61956e-05
4.71433e-05
4.80738e-05
4.89485e-05
4.97983e-05
5.064e-05
5.15368e-05
5.245e-05
5.3383e-05
5.4307e-05
5.52552e-05
5.61858e-05
5.71267e-05
5.80832e-05
5.91162e-05
6.01835e-05
6.12811e-05
6.23529e-05
6.3359e-05
6.42612e-05
6.5319e-05
6.61807e-05
6.7026e-05
6.78191e-05
6.85568e-05
6.92247e-05
6.98508e-05
7.03719e-05
7.08025e-05
7.16568e-05
7.20313e-05
7.21191e-05
7.25379e-05
7.27741e-05
7.30331e-05
7.33358e-05
7.28694e-05
7.26352e-05
7.23387e-05
7.18914e-05
7.15082e-05
7.10234e-05
7.02015e-05
6.9495e-05
6.87258e-05
6.78106e-05
6.68051e-05
6.56092e-05
6.43463e-05
6.28819e-05
6.14002e-05
5.97539e-05
5.81299e-05
5.63384e-05
5.4572e-05
5.26943e-05
5.08892e-05
4.89455e-05
4.70816e-05
4.51111e-05
4.32402e-05
4.12679e-05
3.9432e-05
3.75939e-05
3.59584e-05
3.43661e-05
3.29959e-05
3.17092e-05
3.06352e-05
2.95702e-05
2.86104e-05
2.76419e-05
2.67805e-05
2.58688e-05
2.49806e-05
2.4241e-05
2.33733e-05
2.26062e-05
2.18006e-05
2.11037e-05
2.02755e-05
1.95421e-05
1.87691e-05
1.80033e-05
1.72461e-05
1.64951e-05
1.57508e-05
1.4935e-05
1.42528e-05
1.35538e-05
1.28649e-05
1.22302e-05
1.16165e-05
1.10496e-05
1.05496e-05
1.00682e-05
9.66643e-06
9.33479e-06
9.06991e-06
8.87041e-06
8.73703e-06
8.6648e-06
8.65026e-06
8.67595e-06
8.74184e-06
8.83718e-06
8.95933e-06
9.09127e-06
9.23483e-06
9.38155e-06
9.51969e-06
9.65386e-06
9.77849e-06
9.88205e-06
9.9746e-06
1.00522e-05
1.01122e-05
1.01592e-05
1.01891e-05
1.0208e-05
1.02152e-05
1.0212e-05
1.02012e-05
1.01845e-05
1.01644e-05
1.01395e-05
1.01148e-05
1.00892e-05
1.00655e-05
1.00433e-05
1.00245e-05
1.00094e-05
9.9973e-06
9.98766e-06
9.98107e-06
9.97691e-06
9.9745e-06
9.97359e-06
9.97414e-06
9.97584e-06
9.97851e-06
9.98213e-06
9.98629e-06
9.99072e-06
9.99504e-06
9.99895e-06
1.00019e-05
1.00037e-05
1.00041e-05
1.00033e-05
1.00014e-05
9.99885e-06
9.99616e-06
9.99377e-06
9.99219e-06
9.99156e-06
9.99176e-06
9.99263e-06
9.99401e-06
9.99575e-06
9.99761e-06
9.99956e-06
1.00015e-05
1.00034e-05
1.00049e-05
1.00057e-05
1.00058e-05
1.00049e-05
1.0003e-05
1.00003e-05
9.99707e-06
9.99388e-06
9.99119e-06
9.98948e-06
9.98918e-06
9.99043e-06
9.99297e-06
9.99643e-06
1.00001e-05
1.00035e-05
1.00059e-05
1.00072e-05
1.00074e-05
1.00068e-05
1.00059e-05
1.00052e-05
1.0005e-05
1.00053e-05
1.00061e-05
1.00069e-05
1.00075e-05
1.00075e-05
1.00068e-05
1.00054e-05
1.00034e-05
1.00011e-05
9.99863e-06
9.99614e-06
9.99395e-06
9.99219e-06
9.99097e-06
9.99044e-06
9.9908e-06
9.99213e-06
9.99428e-06
9.99713e-06
1.00004e-05
1.00037e-05
1.00065e-05
1.00085e-05
1.00093e-05
1.00089e-05
1.00071e-05
1.00044e-05
1.00011e-05
9.99787e-06
9.99505e-06
9.99302e-06
9.9921e-06
9.99233e-06
9.99355e-06
9.99555e-06
9.99796e-06
1.00005e-05
1.00027e-05
1.00045e-05
1.00056e-05
1.00059e-05
1.00057e-05
1.00052e-05
1.00046e-05
1.00042e-05
1.00039e-05
1.00037e-05
1.00035e-05
1.00033e-05
1.0003e-05
1.00025e-05
1.00019e-05
1.00011e-05
1.00001e-05
9.99904e-06
9.99781e-06
9.9967e-06
9.99581e-06
9.99546e-06
9.9958e-06
9.99674e-06
9.99811e-06
9.99947e-06
1.00005e-05
1.00008e-05
1e-05
9.99832e-06
9.9957e-06
9.9928e-06
9.98973e-06
9.98733e-06
9.98568e-06
9.98519e-06
9.98572e-06
9.98706e-06
9.98897e-06
9.99109e-06
9.99338e-06
9.99549e-06
9.99738e-06
9.99891e-06
1.00001e-05
1.00009e-05
1.00013e-05
1.00013e-05
1.0001e-05
1.00004e-05
9.99947e-06
9.99846e-06
9.99754e-06
9.99683e-06
9.99631e-06
9.99598e-06
9.99584e-06
9.99587e-06
9.9961e-06
9.99658e-06
9.99746e-06
9.99865e-06
9.99996e-06
1.00011e-05
1.00017e-05
1.00015e-05
1.00006e-05
9.99934e-06
9.99905e-06
9.99871e-06
9.99855e-06
9.9984e-06
9.99831e-06
9.99822e-06
9.99807e-06
9.99786e-06
9.99766e-06
9.99775e-06
9.9983e-06
9.99883e-06
9.99923e-06
9.99948e-06
9.99963e-06
9.99963e-06
9.99956e-06
9.99946e-06
9.99937e-06
9.99927e-06
9.99921e-06
9.99916e-06
9.99918e-06
9.99927e-06
9.99947e-06
9.99981e-06
1.00003e-05
1.0001e-05
1.00017e-05
1.00024e-05
1.00029e-05
1.00031e-05
1.0003e-05
1.00023e-05
1.00013e-05
1.00001e-05
9.99873e-06
9.99739e-06
9.99623e-06
9.99528e-06
9.99472e-06
9.99461e-06
9.99512e-06
9.99616e-06
9.99753e-06
9.99904e-06
1.00004e-05
1.00015e-05
1.0002e-05
1.0002e-05
1.00016e-05
1.00008e-05
9.99993e-06
9.99905e-06
9.99834e-06
9.99779e-06
9.99747e-06
9.99733e-06
9.99738e-06
9.99752e-06
9.99769e-06
9.9978e-06
9.99783e-06
9.99778e-06
9.99776e-06
9.99787e-06
9.99817e-06
9.99861e-06
9.99914e-06
9.99972e-06
1.00003e-05
1.00007e-05
1.00008e-05
1.00007e-05
1.00004e-05
9.99994e-06
9.99949e-06
9.99901e-06
9.99844e-06
9.99793e-06
9.99745e-06
9.99727e-06
9.99734e-06
9.9977e-06
9.99813e-06
9.9987e-06
9.99924e-06
9.99972e-06
1e-05
1.00003e-05
1.00004e-05
1.00004e-05
1.00002e-05
9.9999e-06
9.99962e-06
9.99929e-06
9.99896e-06
9.9987e-06
9.9985e-06
9.99844e-06
9.99849e-06
9.99874e-06
9.99909e-06
9.99951e-06
9.99989e-06
1.00003e-05
1.00007e-05
1.00009e-05
1.00009e-05
1.00009e-05
1.00008e-05
1.00008e-05
1.00007e-05
1.00007e-05
1.0001e-05
1.00013e-05
1.00016e-05
1.00018e-05
1.00018e-05
1.00016e-05
1.00012e-05
1.00008e-05
1.00002e-05
9.99965e-06
9.99908e-06
9.99865e-06
9.99835e-06
9.99827e-06
9.99837e-06
9.99885e-06
9.99965e-06
1.00008e-05
1.0002e-05
1.00033e-05
1.00043e-05
1.00047e-05
1.00041e-05
1.00019e-05
9.99801e-06
9.99187e-06
9.98479e-06
9.97688e-06
9.97111e-06
9.9696e-06
9.97458e-06
9.98961e-06
1.00128e-05
1.00495e-05
1.00895e-05
1.01404e-05
1.01842e-05
1.02251e-05
1.02479e-05
1.02573e-05
1.02441e-05
1.02004e-05
1.01341e-05
1.00236e-05
9.89643e-06
9.71831e-06
9.54588e-06
9.32453e-06
9.13472e-06
8.9142e-06
8.74519e-06
8.55639e-06
8.44115e-06
8.38408e-06
8.40073e-06
8.50135e-06
8.68741e-06
9.06663e-06
9.5001e-06
1.01801e-05
1.08219e-05
1.15359e-05
1.23694e-05
1.33415e-05
1.43322e-05
1.53879e-05
1.64961e-05
1.76943e-05
1.89562e-05
2.01633e-05
2.14792e-05
2.28827e-05
2.43189e-05
2.57043e-05
2.72154e-05
2.90946e-05
3.07503e-05
3.23727e-05
3.38851e-05
3.56136e-05
3.73333e-05
3.89378e-05
4.06235e-05
4.23042e-05
4.3988e-05
4.55354e-05
4.71492e-05
4.88115e-05
5.0381e-05
5.20622e-05
5.35871e-05
5.52764e-05
5.69769e-05
5.85528e-05
6.0168e-05
6.18063e-05
6.33076e-05
6.48752e-05
6.62264e-05
6.76993e-05
6.91244e-05
7.0384e-05
7.16645e-05
7.29556e-05
7.40722e-05
7.52297e-05
7.61414e-05
7.71374e-05
7.8077e-05
7.88607e-05
7.96639e-05
8.05499e-05
8.14036e-05
8.21387e-05
8.27282e-05
8.37873e-05
8.457e-05
8.52233e-05
8.5884e-05
8.6608e-05
8.73124e-05
8.7828e-05
8.80896e-05
8.95297e-05
9.03762e-05
9.12919e-05
9.23456e-05
9.27197e-05
9.34511e-05
9.3842e-05
9.34545e-05
9.50467e-05
9.54252e-05
9.52077e-05
9.54353e-05
9.64616e-05
9.67287e-05
9.69806e-05
9.57821e-05
9.71306e-05
9.70433e-05
9.63566e-05
9.58194e-05
9.6083e-05
9.55392e-05
9.49593e-05
9.48171e-05
9.35756e-05
9.28782e-05
9.21022e-05
9.13352e-05
9.05737e-05
8.97463e-05
8.88588e-05
8.78829e-05
8.69169e-05
8.58314e-05
8.46713e-05
8.34359e-05
8.22885e-05
8.12111e-05
8.02077e-05
7.92851e-05
7.83687e-05
7.74736e-05
7.65734e-05
7.57893e-05
7.50207e-05
7.41915e-05
7.31483e-05
7.19276e-05
7.06321e-05
6.94139e-05
6.82527e-05
6.70217e-05
6.56493e-05
6.42381e-05
6.30985e-05
6.23998e-05
6.18118e-05
6.09913e-05
5.99213e-05
5.90045e-05
5.8108e-05
5.71742e-05
5.65046e-05
5.64132e-05
5.66949e-05
5.71265e-05
5.74385e-05
5.81456e-05
5.89867e-05
5.96512e-05
6.01047e-05
6.0547e-05
6.11077e-05
6.19372e-05
6.26491e-05
6.35502e-05
6.44241e-05
6.55071e-05
6.68221e-05
6.87355e-05
7.1164e-05
7.41299e-05
7.74654e-05
8.17057e-05
8.63526e-05
9.13972e-05
9.52969e-05
0.000100563
0.000105848
0.000110895
0.00011373
0.000115588
0.000114994
0.000112123
0.000107366
0.000102087
9.68816e-05
9.01036e-05
8.39735e-05
7.98634e-05
8.66269e-05
0.000114713
0.000176812
0.000246888
0.000280848
0.000310188
0.000327562
0.000348036
0.000360359
0.000359994
0.000389394
0.000355674
0.000330828
0.000347497
0.00034809
0.00033457
0.000334125
0.000352066
0.000352769
0.000372497
0.000343188
0.000334492
0.000328672
0.000357183
0.000336141
0.00033616
0.000337485
0.000337303
0.000358564
0.000333948
0.000327756
0.000340122
0.000326172
0.000347094
0.000335312
0.000329838
0.000334955
0.000343743
0.00033438
0.000355742
0.00034686
0.000348383
0.000348845
0.000354434
0.000358703
0.000378029
0.000359112
0.000343387
0.000370699
0.000359819
0.000337935
0.000336622