/*--------------------------------*- C++ -*----------------------------------*\
| =========                 |                                                 |
| \\      /  F ield         | foam-extend: Open Source CFD                    |
|  \\    /   O peration     | Version:     4.0                                |
|   \\  /    A nd           | Web:         http://www.foam-extend.org         |
|    \\/     M anipulation  |                                                 |
\*---------------------------------------------------------------------------*/
FoamFile
{
    version     2.0;
    format      ascii;
    class       volScalarField;
    location    "0.01";
    object      h;
}
// * * * * * * * * * * * * * * * * * * * * * * * * * * * * * * * * * * * * * //

dimensions      [0 1 0 0 0 0 0];

internalField   nonuniform List<scalar> 
176451
(
1.00061e-05
9.99872e-06
9.99545e-06
9.99824e-06
9.99907e-06
1.00018e-05
9.99797e-06
9.99884e-06
1.00018e-05
9.99943e-06
1.0001e-05
1.00051e-05
9.99981e-06
9.9998e-06
9.9978e-06
9.99728e-06
1e-05
9.99872e-06
1.00041e-05
9.99738e-06
1.00004e-05
9.99994e-06
9.99919e-06
1.00015e-05
1.00023e-05
1.00016e-05
1.00023e-05
9.99909e-06
9.9981e-06
1.0002e-05
9.99702e-06
1.00004e-05
1.00013e-05
9.99858e-06
9.99698e-06
1.00045e-05
1.00042e-05
1.00007e-05
9.99862e-06
1.00006e-05
9.99674e-06
1.00054e-05
9.99606e-06
1e-05
9.9998e-06
1.00002e-05
1.00005e-05
9.999e-06
1.00008e-05
1.00022e-05
1.00044e-05
9.99596e-06
1.00004e-05
9.99885e-06
1.00002e-05
1.0002e-05
1.00002e-05
1.0001e-05
9.99798e-06
1.00012e-05
1.00026e-05
9.99932e-06
9.99621e-06
1.00006e-05
9.99972e-06
1.0005e-05
1.00006e-05
1.00013e-05
1.00024e-05
9.99874e-06
9.99821e-06
1.00005e-05
1.00009e-05
1.00013e-05
1.00027e-05
1.00017e-05
1.0002e-05
1.00009e-05
1e-05
9.99674e-06
9.99714e-06
1.00064e-05
9.99873e-06
9.99532e-06
1.00021e-05
1.0001e-05
9.99753e-06
1.00016e-05
1.00033e-05
9.99964e-06
1.00041e-05
9.99839e-06
1.00071e-05
9.9989e-06
1.0001e-05
9.99662e-06
9.99776e-06
1.00002e-05
1.00037e-05
9.99488e-06
1.00027e-05
9.9988e-06
1.00029e-05
9.99586e-06
1.00009e-05
9.99925e-06
1.00038e-05
1.00018e-05
1.00014e-05
1.00032e-05
1.00042e-05
1.00004e-05
1.00027e-05
9.99934e-06
1.0001e-05
1.00044e-05
1.00027e-05
9.99641e-06
1.00031e-05
1.00024e-05
1.00011e-05
9.99547e-06
9.99902e-06
9.99546e-06
1.00012e-05
1.0001e-05
9.99764e-06
1.00023e-05
9.99711e-06
1.0001e-05
1.00025e-05
1.0002e-05
9.99898e-06
1.00013e-05
1.00028e-05
9.99691e-06
1.00031e-05
9.99875e-06
1.00006e-05
9.99984e-06
1.00015e-05
9.99616e-06
1.00029e-05
1.00031e-05
9.99724e-06
9.99851e-06
9.99896e-06
1.00018e-05
9.99903e-06
9.99574e-06
1.00042e-05
1.00006e-05
9.99727e-06
1.00029e-05
9.99731e-06
1.00004e-05
9.99678e-06
1.0001e-05
1.00006e-05
9.99944e-06
1.00011e-05
9.99952e-06
9.99588e-06
9.99928e-06
9.99799e-06
1.00019e-05
1.00035e-05
1.0001e-05
9.99695e-06
1.00032e-05
9.99753e-06
9.9947e-06
1.00036e-05
1.00013e-05
1.00005e-05
9.99738e-06
1.00077e-05
9.99606e-06
9.99893e-06
1.00022e-05
9.99913e-06
1.00022e-05
9.99848e-06
9.99931e-06
9.99861e-06
1.00002e-05
9.99929e-06
1.00004e-05
1.0005e-05
1.00034e-05
1.00002e-05
9.99655e-06
9.99291e-06
9.98994e-06
9.98814e-06
9.98787e-06
9.98905e-06
9.99117e-06
9.9938e-06
9.99638e-06
9.99866e-06
1.00004e-05
1.00018e-05
1.00029e-05
1.00039e-05
1.00047e-05
1.00053e-05
1.00056e-05
1.00055e-05
1.00047e-05
1.00032e-05
1.0001e-05
9.99844e-06
9.99577e-06
9.99346e-06
9.99208e-06
9.9919e-06
9.99297e-06
9.99515e-06
9.99797e-06
1.0001e-05
1.00035e-05
1.00055e-05
1.00068e-05
1.00076e-05
1.00081e-05
1.00086e-05
1.00091e-05
1.00096e-05
1.00097e-05
1.00094e-05
1.00085e-05
1.0007e-05
1.00049e-05
1.00025e-05
1.00002e-05
9.99829e-06
9.99694e-06
9.99636e-06
9.99642e-06
9.99704e-06
9.99801e-06
9.99914e-06
1.00003e-05
1.00014e-05
1.00023e-05
1.00029e-05
1.00034e-05
1.00037e-05
1.00041e-05
1.00046e-05
1.00053e-05
1.0006e-05
1.00066e-05
1.00067e-05
1.00061e-05
1.00049e-05
1.00029e-05
1.00007e-05
9.99846e-06
9.99668e-06
9.99553e-06
9.99533e-06
9.99598e-06
9.99729e-06
9.99909e-06
1.0001e-05
1.00026e-05
1.00038e-05
1.00044e-05
1.00046e-05
1.00045e-05
1.00045e-05
1.00046e-05
1.00049e-05
1.00052e-05
1.00051e-05
1.00044e-05
1.00033e-05
1.00016e-05
9.99963e-06
9.99766e-06
9.99609e-06
9.99491e-06
9.99417e-06
9.99379e-06
9.99379e-06
9.99393e-06
9.99409e-06
9.99422e-06
9.99436e-06
9.99443e-06
9.99448e-06
9.99458e-06
9.99481e-06
9.99515e-06
9.9956e-06
9.99623e-06
9.99705e-06
9.99787e-06
9.99851e-06
9.99889e-06
9.99894e-06
9.99861e-06
9.99804e-06
9.99742e-06
9.99701e-06
9.99684e-06
9.99693e-06
9.99728e-06
9.99781e-06
9.9983e-06
9.9986e-06
9.99868e-06
9.99862e-06
9.99845e-06
9.99832e-06
9.9984e-06
9.9988e-06
9.99942e-06
1.00001e-05
1.00008e-05
1.00015e-05
1.00021e-05
1.00026e-05
1.0003e-05
1.00034e-05
1.00037e-05
1.00038e-05
1.00037e-05
1.00036e-05
1.00033e-05
1.00031e-05
1.00029e-05
1.00029e-05
1.0003e-05
1.00032e-05
1.00034e-05
1.00035e-05
1.00034e-05
1.0003e-05
1.00024e-05
1.00014e-05
1.00003e-05
9.99902e-06
9.99765e-06
9.99617e-06
9.99473e-06
9.99354e-06
9.99272e-06
9.99238e-06
9.99265e-06
9.99352e-06
9.99497e-06
9.99687e-06
9.99922e-06
1.00019e-05
1.00046e-05
1.00068e-05
1.00082e-05
1.00082e-05
1.00067e-05
1.00039e-05
1.00005e-05
9.9971e-06
9.99443e-06
9.99285e-06
9.99251e-06
9.99321e-06
9.99458e-06
9.99608e-06
9.99736e-06
9.99821e-06
9.99859e-06
9.99856e-06
9.99837e-06
9.99827e-06
9.99844e-06
9.99886e-06
9.99955e-06
1.00004e-05
1.00013e-05
1.00022e-05
1.00028e-05
1.00033e-05
1.00036e-05
1.00035e-05
1.00031e-05
1.00026e-05
1.00018e-05
1.0001e-05
1.00001e-05
9.99926e-06
9.99851e-06
9.99779e-06
9.99716e-06
9.9967e-06
9.99642e-06
9.99627e-06
9.99626e-06
9.99643e-06
9.99681e-06
9.99735e-06
9.99814e-06
9.99913e-06
1.00002e-05
1.00011e-05
1.00016e-05
1.00016e-05
1.00011e-05
1.00003e-05
9.99947e-06
9.99875e-06
9.99828e-06
9.99803e-06
9.99798e-06
9.99809e-06
9.99829e-06
9.99844e-06
9.99851e-06
9.99848e-06
9.99831e-06
9.99798e-06
9.99761e-06
9.99735e-06
9.99734e-06
9.99763e-06
9.99832e-06
9.99937e-06
1.00007e-05
1.00021e-05
1.00034e-05
1.00046e-05
1.00053e-05
1.00055e-05
1.00052e-05
1.00045e-05
1.00034e-05
1.00018e-05
1.00004e-05
9.99897e-06
9.99798e-06
9.99727e-06
9.99701e-06
9.99703e-06
9.99719e-06
9.99732e-06
9.9975e-06
9.99769e-06
9.9978e-06
9.99769e-06
9.99737e-06
9.99675e-06
9.9959e-06
9.99487e-06
9.9941e-06
9.99388e-06
9.99436e-06
9.99554e-06
9.9973e-06
9.99952e-06
1.00018e-05
1.00041e-05
1.00059e-05
1.00072e-05
1.00078e-05
1.00076e-05
1.00067e-05
1.00055e-05
1.00041e-05
1.00027e-05
1.00017e-05
1.00011e-05
1.00009e-05
1.00008e-05
1.0001e-05
1.00012e-05
1.00014e-05
1.00015e-05
1.00016e-05
1.00018e-05
1.00021e-05
1.00025e-05
1.00031e-05
1.00037e-05
1.00041e-05
1.00042e-05
1.0004e-05
1.00035e-05
1.00029e-05
1.00021e-05
1.00015e-05
1.00011e-05
1.00008e-05
1.00007e-05
1.00005e-05
1.00004e-05
1.00002e-05
9.99987e-06
9.9996e-06
9.99945e-06
9.99949e-06
9.99973e-06
1.00002e-05
1.00007e-05
1.00011e-05
1.00013e-05
1.00012e-05
1.00008e-05
1.00002e-05
9.99944e-06
9.99867e-06
9.99791e-06
9.99715e-06
9.99634e-06
9.99576e-06
9.99548e-06
9.99556e-06
9.9961e-06
9.99719e-06
9.99878e-06
1.00006e-05
1.00024e-05
1.00039e-05
1.00049e-05
1.00052e-05
1.00048e-05
1.00037e-05
1.0002e-05
1.00001e-05
9.99812e-06
9.99659e-06
9.9957e-06
9.99558e-06
9.99609e-06
9.99695e-06
9.99791e-06
9.99877e-06
9.99943e-06
9.99979e-06
9.99991e-06
9.99984e-06
9.99962e-06
9.99932e-06
9.99913e-06
9.99931e-06
1e-05
1.00013e-05
1.0003e-05
1.00046e-05
1.00058e-05
1.00061e-05
1.00053e-05
1.00036e-05
1.00014e-05
9.99903e-06
9.99698e-06
9.99557e-06
9.9948e-06
9.99451e-06
9.99463e-06
9.99509e-06
9.99592e-06
9.99707e-06
9.99854e-06
1.00001e-05
1.00016e-05
1.00025e-05
1.00028e-05
1.00023e-05
1.00014e-05
1.00003e-05
9.99933e-06
9.99875e-06
9.99856e-06
9.99858e-06
9.99867e-06
9.99869e-06
9.99857e-06
9.99821e-06
9.99771e-06
9.99721e-06
9.9968e-06
9.99659e-06
9.99668e-06
9.99714e-06
9.99787e-06
9.99866e-06
9.99936e-06
9.99981e-06
9.99996e-06
9.99978e-06
9.9994e-06
9.999e-06
9.99868e-06
9.99843e-06
9.9983e-06
9.9983e-06
9.99841e-06
9.99857e-06
9.99885e-06
9.99929e-06
9.99991e-06
1.00006e-05
1.00013e-05
1.00021e-05
1.00027e-05
1.00032e-05
1.00036e-05
1.0004e-05
1.00043e-05
1.00045e-05
1.00045e-05
1.00044e-05
1.0004e-05
1.00032e-05
1.0002e-05
1.00006e-05
9.9991e-06
9.99783e-06
9.99705e-06
9.99699e-06
9.9977e-06
9.99903e-06
1.00008e-05
1.00026e-05
1.00042e-05
1.00051e-05
1.00052e-05
1.00043e-05
1.00027e-05
1.00004e-05
9.99812e-06
9.99617e-06
9.99493e-06
9.99445e-06
9.99486e-06
9.99594e-06
9.99729e-06
9.99849e-06
9.99913e-06
9.99906e-06
9.99834e-06
9.9971e-06
9.99604e-06
9.99549e-06
9.99584e-06
9.99703e-06
9.99876e-06
1.00007e-05
1.00023e-05
1.00033e-05
1.00035e-05
1.00032e-05
1.00024e-05
1.00013e-05
1.00002e-05
9.99903e-06
9.99795e-06
9.99682e-06
9.996e-06
9.99557e-06
9.99569e-06
9.99635e-06
9.99754e-06
9.99918e-06
1.00009e-05
1.00026e-05
1.00039e-05
1.00047e-05
1.00049e-05
1.00046e-05
1.00038e-05
1.00026e-05
1.00016e-05
1.00008e-05
1.00004e-05
1.00004e-05
1.00005e-05
1.00006e-05
1.00005e-05
9.99989e-06
9.99903e-06
9.9981e-06
9.99748e-06
9.99732e-06
9.99761e-06
9.99826e-06
9.99908e-06
9.99991e-06
1.00005e-05
1.00009e-05
1.00011e-05
1.00012e-05
1.00012e-05
1.0001e-05
1.00006e-05
1.00001e-05
9.9996e-06
9.99924e-06
9.99918e-06
9.99953e-06
1.00002e-05
1.00009e-05
1.00014e-05
1.00017e-05
1.00016e-05
1.00011e-05
1.00006e-05
1.00001e-05
9.99994e-06
9.99997e-06
1.00002e-05
1.00005e-05
1.00007e-05
1.00008e-05
1.00008e-05
1.00007e-05
1.00006e-05
1.00004e-05
1.00002e-05
9.9999e-06
9.99934e-06
9.99867e-06
9.99812e-06
9.9978e-06
9.99795e-06
9.99854e-06
9.99944e-06
1.00005e-05
1.00013e-05
1.00017e-05
1.00015e-05
1.00008e-05
9.99973e-06
9.99868e-06
9.99786e-06
9.99752e-06
9.99775e-06
9.99851e-06
9.99958e-06
1.00008e-05
1.0002e-05
1.00029e-05
1.00034e-05
1.00035e-05
1.0003e-05
1.00022e-05
1.00009e-05
9.99946e-06
9.99805e-06
9.99688e-06
9.99612e-06
9.99592e-06
9.99633e-06
9.99726e-06
9.9984e-06
9.99957e-06
1.00006e-05
1.00015e-05
1.00021e-05
1.00027e-05
1.00033e-05
1.00041e-05
1.00048e-05
1.00053e-05
1.00054e-05
1.00048e-05
1.00033e-05
1.00011e-05
9.99853e-06
9.99596e-06
9.99385e-06
9.99267e-06
9.99277e-06
9.99421e-06
9.99665e-06
9.99972e-06
1.00027e-05
1.00052e-05
1.00066e-05
1.00067e-05
1.00057e-05
1.00038e-05
1.00014e-05
9.99881e-06
9.99649e-06
9.99457e-06
9.99311e-06
9.99218e-06
9.99187e-06
9.99223e-06
9.99328e-06
9.99511e-06
9.99756e-06
1.00004e-05
1.00031e-05
1.00051e-05
1.00062e-05
1.00061e-05
1.00049e-05
1.00031e-05
1.00011e-05
9.99927e-06
9.99793e-06
9.99717e-06
9.99699e-06
9.99724e-06
9.99767e-06
9.99813e-06
9.99849e-06
9.99864e-06
9.99853e-06
9.9983e-06
9.99816e-06
9.99833e-06
9.99889e-06
9.99994e-06
1.00013e-05
1.00028e-05
1.0004e-05
1.00047e-05
1.00047e-05
1.00041e-05
1.00028e-05
1.00015e-05
1.00003e-05
9.99945e-06
9.99889e-06
9.99872e-06
9.99867e-06
9.99859e-06
9.99825e-06
9.99768e-06
9.99687e-06
9.99608e-06
9.99533e-06
9.99496e-06
9.99508e-06
9.99565e-06
9.99664e-06
9.99794e-06
9.99943e-06
1.00009e-05
1.00021e-05
1.00029e-05
1.00033e-05
1.00032e-05
1.00025e-05
1.00017e-05
1.00009e-05
1.00002e-05
9.99953e-06
9.99918e-06
9.99907e-06
9.99914e-06
9.99923e-06
9.99935e-06
9.99945e-06
9.99947e-06
9.99937e-06
9.99927e-06
9.99927e-06
9.99938e-06
9.99957e-06
9.9999e-06
1.00004e-05
1.00009e-05
1.00015e-05
1.00021e-05
1.00024e-05
1.00024e-05
1.0002e-05
1.00013e-05
1.00003e-05
9.99921e-06
9.99812e-06
9.99727e-06
9.99679e-06
9.99671e-06
9.997e-06
9.99766e-06
9.9986e-06
9.99964e-06
1.00006e-05
1.00014e-05
1.00018e-05
1.00019e-05
1.00015e-05
1.0001e-05
1.00003e-05
9.99964e-06
9.99909e-06
9.99879e-06
9.99883e-06
9.99914e-06
9.99967e-06
1.00003e-05
1.00008e-05
1.00012e-05
1.00012e-05
1.00008e-05
1e-05
9.99907e-06
9.99815e-06
9.99752e-06
9.9974e-06
9.99784e-06
9.99876e-06
9.99995e-06
1.00011e-05
1.0002e-05
1.00023e-05
1.00019e-05
1.0001e-05
9.99983e-06
9.99874e-06
9.99809e-06
9.99799e-06
9.99852e-06
9.99948e-06
1.00006e-05
1.00016e-05
1.00023e-05
1.00027e-05
1.00026e-05
1.00024e-05
1.00021e-05
1.00019e-05
1.00018e-05
1.00018e-05
1.00018e-05
1.00019e-05
1.00019e-05
1.00018e-05
1.00016e-05
1.00012e-05
1.00007e-05
9.99985e-06
9.99893e-06
9.99794e-06
9.99697e-06
9.99613e-06
9.9956e-06
9.99544e-06
9.99563e-06
9.9962e-06
9.99705e-06
9.99806e-06
9.99897e-06
9.99965e-06
1e-05
1.00001e-05
9.99988e-06
9.99965e-06
9.99961e-06
9.9999e-06
1.00005e-05
1.00013e-05
1.00021e-05
1.00029e-05
1.00032e-05
1.00032e-05
1.00029e-05
1.00024e-05
1.00018e-05
1.00013e-05
1.00009e-05
1.00008e-05
1.00008e-05
1.00009e-05
1.0001e-05
1.0001e-05
1.00007e-05
1.00001e-05
9.9994e-06
9.99867e-06
9.99804e-06
9.99767e-06
9.99767e-06
9.998e-06
9.99847e-06
9.99897e-06
9.99937e-06
9.99964e-06
9.99975e-06
9.99985e-06
1.00001e-05
1.00006e-05
1.00011e-05
1.00017e-05
1.00022e-05
1.00023e-05
1.00019e-05
1.0001e-05
9.99979e-06
9.99855e-06
9.99751e-06
9.99689e-06
9.99684e-06
9.99732e-06
9.9981e-06
9.99899e-06
9.9998e-06
1.00004e-05
1.00006e-05
1.00006e-05
1.00003e-05
1e-05
9.99977e-06
9.99968e-06
9.99983e-06
1.00003e-05
1.00008e-05
1.00014e-05
1.00019e-05
1.00021e-05
1.00021e-05
1.00017e-05
1.00012e-05
1.00006e-05
1.00001e-05
9.9999e-06
1.00001e-05
1.00006e-05
1.00013e-05
1.0002e-05
1.00025e-05
1.00025e-05
1.0002e-05
1.00012e-05
1.00001e-05
9.99905e-06
9.99825e-06
9.99796e-06
9.99814e-06
9.99867e-06
9.99933e-06
9.99993e-06
1.00003e-05
1.00005e-05
1.00005e-05
1.00004e-05
1.00004e-05
1.00006e-05
1.00009e-05
1.00013e-05
1.00018e-05
1.00023e-05
1.00027e-05
1.00028e-05
1.00028e-05
1.00025e-05
1.0002e-05
1.00014e-05
1.00006e-05
9.99977e-06
9.99892e-06
9.99834e-06
9.99795e-06
9.99785e-06
9.99797e-06
9.9983e-06
9.99873e-06
9.9991e-06
9.9993e-06
9.99935e-06
9.99923e-06
9.99908e-06
9.99895e-06
9.99901e-06
9.99925e-06
9.9997e-06
1.00003e-05
1.00008e-05
1.00012e-05
1.00014e-05
1.00014e-05
1.00014e-05
1.00012e-05
1.00011e-05
1.00009e-05
1.00007e-05
1.00005e-05
1.00002e-05
9.99979e-06
9.99944e-06
9.99908e-06
9.99887e-06
9.99875e-06
9.99879e-06
9.99888e-06
9.999e-06
9.99909e-06
9.9992e-06
9.99934e-06
9.99961e-06
1e-05
1.00006e-05
1.00014e-05
1.00021e-05
1.00027e-05
1.0003e-05
1.00029e-05
1.00025e-05
1.00018e-05
1.0001e-05
1.00002e-05
9.99946e-06
9.99894e-06
9.99874e-06
9.99875e-06
9.99893e-06
9.9992e-06
9.99954e-06
9.99982e-06
1.00001e-05
1.00002e-05
1.00003e-05
1.00005e-05
1.00006e-05
1.00009e-05
1.00011e-05
1.00013e-05
1.00014e-05
1.00015e-05
1.00014e-05
1.00011e-05
1.00007e-05
1.00001e-05
9.99951e-06
9.99888e-06
9.99841e-06
9.99812e-06
9.99804e-06
9.99821e-06
9.99866e-06
9.99937e-06
1.00002e-05
1.0001e-05
1.00016e-05
1.00021e-05
1.00022e-05
1.00018e-05
1.00012e-05
1.00002e-05
9.99905e-06
9.99787e-06
9.99691e-06
9.9963e-06
9.9961e-06
9.99637e-06
9.99708e-06
9.99815e-06
9.99934e-06
1.00005e-05
1.00015e-05
1.00023e-05
1.00028e-05
1.00029e-05
1.00028e-05
1.00026e-05
1.00023e-05
1.00018e-05
1.00012e-05
1.00006e-05
9.9998e-06
9.99898e-06
9.99827e-06
9.99774e-06
9.99745e-06
9.99748e-06
9.99786e-06
9.99852e-06
9.99932e-06
1.00002e-05
1.00009e-05
1.00016e-05
1.00019e-05
1.0002e-05
1.00018e-05
1.00015e-05
1.00011e-05
1.00006e-05
1.00002e-05
9.99979e-06
9.99945e-06
9.9992e-06
9.99912e-06
9.99919e-06
9.99933e-06
9.99961e-06
1e-05
1.00006e-05
1.0001e-05
1.00012e-05
1.00011e-05
1.00008e-05
1.00003e-05
9.99968e-06
9.99923e-06
9.99902e-06
9.99902e-06
9.99921e-06
9.9995e-06
9.99976e-06
9.99982e-06
9.9997e-06
9.9995e-06
9.99927e-06
9.99901e-06
9.99878e-06
9.99867e-06
9.99871e-06
9.99887e-06
9.9991e-06
9.99944e-06
9.99985e-06
1.00002e-05
1.00006e-05
1.00009e-05
1.00011e-05
1.00012e-05
1.00012e-05
1.00011e-05
1.0001e-05
1.00008e-05
1.00006e-05
1.00004e-05
1.00004e-05
1.00003e-05
1.00003e-05
1.00003e-05
1.00003e-05
1.00001e-05
9.99994e-06
9.99976e-06
9.99967e-06
9.99962e-06
9.99968e-06
9.99984e-06
1.00001e-05
1.00003e-05
1.00006e-05
1.00007e-05
1.00007e-05
1.00007e-05
1.00005e-05
1.00003e-05
1.00001e-05
9.99988e-06
9.99965e-06
9.99949e-06
9.99947e-06
9.99948e-06
9.99958e-06
9.9997e-06
9.99989e-06
1.00001e-05
1.00002e-05
1.00002e-05
1.00003e-05
1.00004e-05
1.00005e-05
1.00005e-05
1.00005e-05
1.00004e-05
1.00003e-05
1e-05
9.99988e-06
9.99971e-06
9.99963e-06
9.9996e-06
9.99968e-06
9.99979e-06
9.99994e-06
1.00001e-05
1.00001e-05
1.00001e-05
1e-05
9.99985e-06
9.99966e-06
9.99944e-06
9.9993e-06
9.99922e-06
9.99929e-06
9.9994e-06
9.99957e-06
9.99978e-06
1e-05
1.00002e-05
1.00005e-05
1.00007e-05
1.00009e-05
1.00009e-05
1.00008e-05
1.00007e-05
1.00005e-05
1.00001e-05
9.99976e-06
9.99951e-06
9.99936e-06
9.9993e-06
9.99938e-06
9.99953e-06
9.99975e-06
9.99995e-06
1.00001e-05
1.00003e-05
1.00004e-05
1.00004e-05
1.00004e-05
1.00003e-05
1.00002e-05
1.00001e-05
9.99978e-06
9.99945e-06
9.99915e-06
9.99893e-06
9.99879e-06
9.99882e-06
9.99905e-06
9.99944e-06
9.99985e-06
1.00002e-05
1.00005e-05
1.00008e-05
1.00009e-05
1.00009e-05
1.0001e-05
1.0001e-05
1.0001e-05
1.00009e-05
1.00008e-05
1.00006e-05
1.00003e-05
9.99993e-06
9.99957e-06
9.99925e-06
9.99898e-06
9.9988e-06
9.99877e-06
9.99889e-06
9.99909e-06
9.99938e-06
9.99973e-06
1.00001e-05
1.00004e-05
1.00006e-05
1.00007e-05
1.00006e-05
1.00004e-05
1.00001e-05
9.99988e-06
9.99969e-06
9.99956e-06
9.99953e-06
9.99962e-06
9.99982e-06
1e-05
1.00002e-05
1.00004e-05
1.00005e-05
1.00006e-05
1.00005e-05
1.00004e-05
1.00002e-05
9.99994e-06
9.99967e-06
9.99943e-06
9.99924e-06
9.99904e-06
9.99891e-06
9.99893e-06
9.99908e-06
9.99926e-06
9.99947e-06
9.99972e-06
1e-05
1.00002e-05
1.00004e-05
1.00005e-05
1.00006e-05
1.00005e-05
1.00003e-05
1.00001e-05
9.99991e-06
9.99977e-06
9.99969e-06
9.99971e-06
9.99982e-06
9.9999e-06
9.99995e-06
9.99995e-06
9.9999e-06
9.99974e-06
9.99953e-06
9.99934e-06
9.99921e-06
9.99913e-06
9.99913e-06
9.99924e-06
9.99944e-06
9.99962e-06
9.99978e-06
9.99992e-06
1e-05
1.00001e-05
1.00001e-05
1.00001e-05
1.00002e-05
1.00002e-05
1.00002e-05
1.00002e-05
1.00003e-05
1.00002e-05
1.00001e-05
1e-05
9.99999e-06
9.99999e-06
1e-05
1.00001e-05
1.00002e-05
1.00002e-05
1.00002e-05
1.00001e-05
9.99999e-06
9.99985e-06
9.99972e-06
9.99961e-06
9.99961e-06
9.99967e-06
9.99978e-06
9.99991e-06
1.00001e-05
1.00002e-05
1.00002e-05
1.00002e-05
1.00002e-05
1.00002e-05
1.00001e-05
1e-05
9.99995e-06
9.9999e-06
9.99988e-06
9.99987e-06
9.99993e-06
9.99996e-06
1e-05
1e-05
1.00001e-05
1.00002e-05
1.00002e-05
1.00002e-05
1.00003e-05
1.00002e-05
1.00001e-05
1e-05
9.99997e-06
9.99994e-06
9.99999e-06
1e-05
1.00001e-05
1.00001e-05
1.00001e-05
1.00001e-05
1.00001e-05
1.00001e-05
1e-05
9.99995e-06
9.99991e-06
9.99988e-06
9.99993e-06
1e-05
1.00001e-05
1.00002e-05
1.00002e-05
1.00001e-05
1.00001e-05
9.99995e-06
9.99987e-06
9.99982e-06
9.99982e-06
9.9998e-06
9.99983e-06
9.99983e-06
9.99986e-06
9.99987e-06
9.99991e-06
9.99997e-06
1e-05
1e-05
9.99995e-06
9.99988e-06
9.99981e-06
9.99972e-06
9.99972e-06
9.9998e-06
9.99992e-06
1e-05
1.00001e-05
1.00001e-05
1.00001e-05
1e-05
9.99982e-06
9.99967e-06
9.99959e-06
9.99961e-06
9.99968e-06
9.99973e-06
9.9998e-06
9.99988e-06
9.99989e-06
9.99987e-06
9.99988e-06
9.99993e-06
1e-05
1.00002e-05
1.00005e-05
1.00011e-05
1.00016e-05
1.00021e-05
1.00025e-05
1.00024e-05
1.00016e-05
9.99973e-06
9.99682e-06
9.99259e-06
9.98766e-06
9.98263e-06
9.97836e-06
9.97566e-06
9.97563e-06
9.97908e-06
9.98648e-06
9.99924e-06
1.0016e-05
1.0036e-05
1.00586e-05
1.00845e-05
1.01103e-05
1.01348e-05
1.0157e-05
1.01769e-05
1.01912e-05
1.0199e-05
1.01988e-05
1.01859e-05
1.01613e-05
1.01245e-05
1.00734e-05
9.99804e-06
9.908e-06
9.8054e-06
9.68847e-06
9.54552e-06
9.39486e-06
9.24087e-06
9.08219e-06
8.91653e-06
8.77347e-06
8.67464e-06
8.64232e-06
8.72951e-06
8.95818e-06
9.34445e-06
9.88519e-06
1.06352e-05
1.14767e-05
1.23613e-05
1.32795e-05
1.43138e-05
1.53665e-05
1.64539e-05
1.76266e-05
1.90243e-05
2.05243e-05
2.21136e-05
2.378e-05
2.56328e-05
2.74762e-05
2.92792e-05
3.10234e-05
3.28474e-05
3.45793e-05
3.62012e-05
3.77291e-05
3.92778e-05
4.07005e-05
4.19769e-05
4.31308e-05
4.42931e-05
4.53229e-05
4.62094e-05
4.69866e-05
4.77521e-05
4.83925e-05
4.88916e-05
4.92915e-05
4.96806e-05
4.99817e-05
5.01756e-05
5.03049e-05
5.04127e-05
5.04406e-05
5.03389e-05
5.02717e-05
5.00849e-05
4.98157e-05
4.94578e-05
4.90366e-05
4.8503e-05
4.79261e-05
4.73215e-05
4.66381e-05
4.59171e-05
4.51249e-05
4.43289e-05
4.34633e-05
4.25895e-05
4.15912e-05
4.05408e-05
3.93021e-05
3.80356e-05
3.66651e-05
3.53525e-05
3.39686e-05
3.26339e-05
3.11508e-05
2.95539e-05
2.7583e-05
2.53981e-05
2.28232e-05
2.01997e-05
1.75761e-05
1.55587e-05
1.45128e-05
1.53571e-05
1.85891e-05
2.32483e-05
2.90248e-05
3.40739e-05
3.67019e-05
3.49626e-05
2.90722e-05
2.32916e-05
2.36911e-05
3.95941e-05
5.45412e-05
6.34089e-05
6.87505e-05
7.15643e-05
7.34251e-05
7.44514e-05
7.4648e-05
7.41086e-05
7.29354e-05
7.19706e-05
7.09496e-05
6.97274e-05
6.87509e-05
6.78832e-05
6.73878e-05
6.70876e-05
6.69453e-05
6.70147e-05
6.72643e-05
6.76361e-05
6.80356e-05
6.8386e-05
6.87278e-05
6.90016e-05
6.92038e-05
6.92655e-05
6.92978e-05
6.92622e-05
6.91963e-05
6.9044e-05
6.89628e-05
6.88011e-05
6.864e-05
6.85662e-05
6.84478e-05
6.83863e-05
6.83492e-05
6.82955e-05
6.83419e-05
6.83276e-05
6.83809e-05
6.8402e-05
6.84485e-05
6.84756e-05
6.84143e-05
6.843e-05
6.8391e-05
6.84015e-05
6.84186e-05
6.84745e-05
6.84878e-05
6.84987e-05
6.85085e-05
6.85362e-05
6.85711e-05
6.86628e-05
6.87337e-05
6.87838e-05
6.88462e-05
6.89001e-05
6.89086e-05
6.89098e-05
6.89212e-05
6.89174e-05
6.88832e-05
6.8858e-05
6.88609e-05
6.88647e-05
6.88421e-05
6.8831e-05
6.88488e-05
6.88669e-05
6.88525e-05
6.88476e-05
6.88681e-05
6.88833e-05
6.88601e-05
6.88416e-05
6.88446e-05
6.88393e-05
6.87947e-05
6.87579e-05
6.87492e-05
6.87435e-05
6.87138e-05
6.87064e-05
6.87384e-05
6.87787e-05
6.87938e-05
6.88202e-05
6.88683e-05
6.88987e-05
6.88729e-05
6.88307e-05
6.87878e-05
6.87237e-05
6.86179e-05
6.85291e-05
6.84918e-05
6.84966e-05
6.8511e-05
6.85898e-05
6.87433e-05
6.89065e-05
6.89961e-05
6.90573e-05
6.90834e-05
6.90192e-05
6.88435e-05
6.8618e-05
6.83848e-05
6.81784e-05
6.80346e-05
6.80491e-05
6.82681e-05
6.86419e-05
6.90736e-05
6.95308e-05
6.99178e-05
7.00427e-05
6.98116e-05
6.93049e-05
6.85895e-05
6.77505e-05
6.69862e-05
6.67078e-05
6.72284e-05
6.84731e-05
7.02098e-05
7.23594e-05
7.44268e-05
7.51594e-05
7.3448e-05
6.85448e-05
5.93223e-05
4.5012e-05
2.77646e-05
2.3868e-05
2.4876e-05
2.67633e-05
2.89841e-05
3.02195e-05
2.91196e-05
2.69834e-05
2.54965e-05
2.42557e-05
2.28317e-05
2.18398e-05
2.15445e-05
2.17365e-05
2.21616e-05
2.28825e-05
2.40524e-05
2.55036e-05
2.6951e-05
2.83218e-05
2.97047e-05
3.11708e-05
3.26474e-05
3.40649e-05
3.52979e-05
3.64569e-05
3.74229e-05
3.82943e-05
3.90704e-05
3.97945e-05
4.04518e-05
4.10728e-05
4.15963e-05
4.20644e-05
4.23971e-05
4.25557e-05
4.25689e-05
4.24692e-05
4.23158e-05
4.20744e-05
4.179e-05
4.14257e-05
4.10102e-05
4.04313e-05
3.97255e-05
3.88637e-05
3.79795e-05
3.69938e-05
3.60814e-05
3.52007e-05
3.44858e-05
3.38088e-05
3.32575e-05
3.28034e-05
3.25051e-05
3.22683e-05
3.21219e-05
3.20442e-05
3.20588e-05
3.20407e-05
3.19968e-05
3.1924e-05
3.18707e-05
3.1735e-05
3.14978e-05
3.13825e-05
3.09733e-05
3.05831e-05
3.00427e-05
2.96046e-05
2.89422e-05
2.83892e-05
2.77691e-05
2.71383e-05
2.64608e-05
2.57336e-05
2.49384e-05
2.3955e-05
2.30848e-05
2.20959e-05
2.10434e-05
2.0019e-05
1.89543e-05
1.79064e-05
1.69114e-05
1.58624e-05
1.48692e-05
1.39176e-05
1.30007e-05
1.21428e-05
1.13444e-05
1.06265e-05
1.00416e-05
9.54266e-06
9.14934e-06
8.90162e-06
8.73561e-06
8.65339e-06
8.65316e-06
8.72169e-06
8.83867e-06
8.99067e-06
9.16825e-06
9.34207e-06
9.51925e-06
9.68467e-06
9.82796e-06
9.95506e-06
1.00496e-05
1.01247e-05
1.0176e-05
1.02015e-05
1.02092e-05
1.02016e-05
1.01823e-05
1.01525e-05
1.012e-05
1.00854e-05
1.00532e-05
1.00241e-05
1.00012e-05
9.98477e-06
9.97432e-06
9.96918e-06
9.96898e-06
9.97216e-06
9.97743e-06
9.98386e-06
9.99012e-06
9.99551e-06
9.99966e-06
1.00025e-05
1.0004e-05
1.00045e-05
1.00042e-05
1.00034e-05
1.00025e-05
1.00017e-05
1.00009e-05
1.00002e-05
9.99954e-06
9.99893e-06
9.99842e-06
9.99809e-06
9.99808e-06
9.99839e-06
9.99883e-06
9.9993e-06
9.99973e-06
1.00001e-05
1.00003e-05
1.00004e-05
1.00006e-05
1.00009e-05
1.00012e-05
1.00015e-05
1.00018e-05
1.00018e-05
1.00016e-05
1.00011e-05
1.00004e-05
9.99959e-06
9.99885e-06
9.99828e-06
9.99806e-06
9.99829e-06
9.99889e-06
9.99973e-06
1.00006e-05
1.00014e-05
1.00017e-05
1.00016e-05
1.00011e-05
1.00003e-05
9.99959e-06
9.99903e-06
9.99887e-06
9.99912e-06
9.99961e-06
1.00002e-05
1.00007e-05
1.0001e-05
1.0001e-05
1.00007e-05
1.00002e-05
9.99971e-06
9.99922e-06
9.99884e-06
9.99865e-06
9.99867e-06
9.99878e-06
9.99897e-06
9.99923e-06
9.99951e-06
9.99967e-06
9.99971e-06
9.99967e-06
9.99962e-06
9.99953e-06
9.99945e-06
9.99946e-06
9.99959e-06
9.99976e-06
9.99994e-06
1.00001e-05
1.00003e-05
1.00003e-05
1.00002e-05
1.00001e-05
9.99992e-06
9.99982e-06
9.99987e-06
1.00001e-05
1.00007e-05
1.00013e-05
1.0002e-05
1.00024e-05
1.00024e-05
1.00018e-05
1.00009e-05
9.99978e-06
9.99884e-06
9.99807e-06
9.99763e-06
9.99753e-06
9.99782e-06
9.99841e-06
9.9992e-06
1.00001e-05
1.00008e-05
1.00013e-05
1.00014e-05
1.00011e-05
1.00005e-05
9.9998e-06
9.9993e-06
9.99918e-06
9.99953e-06
1.00002e-05
1.00011e-05
1.00019e-05
1.00024e-05
1.00023e-05
1.00017e-05
1.00006e-05
9.99925e-06
9.99789e-06
9.99695e-06
9.99649e-06
9.99671e-06
9.99749e-06
9.99858e-06
9.99982e-06
1.0001e-05
1.0002e-05
1.00027e-05
1.00031e-05
1.00032e-05
1.00029e-05
1.00024e-05
1.00016e-05
1.00007e-05
9.99975e-06
9.9989e-06
9.99823e-06
9.99785e-06
9.99789e-06
9.99833e-06
9.99906e-06
9.99985e-06
1.00006e-05
1.0001e-05
1.00012e-05
1.0001e-05
1.00007e-05
1.00004e-05
1e-05
9.9997e-06
9.9993e-06
9.99874e-06
9.99804e-06
9.99763e-06
9.99804e-06
9.99846e-06
9.99894e-06
9.9994e-06
9.9998e-06
1.00001e-05
1.00002e-05
1.00002e-05
1.00001e-05
1.00001e-05
1.00001e-05
1.00001e-05
1.00001e-05
9.99996e-06
9.99987e-06
9.99978e-06
9.99975e-06
9.99978e-06
9.99992e-06
1.00001e-05
1.00002e-05
1.00004e-05
1.00004e-05
1.00004e-05
1.00002e-05
1e-05
9.99985e-06
9.9997e-06
9.99965e-06
9.99967e-06
9.99976e-06
9.99982e-06
9.99986e-06
9.99985e-06
9.99985e-06
9.99988e-06
9.99998e-06
1.00001e-05
1.00002e-05
1.00002e-05
1.00001e-05
9.99987e-06
9.99974e-06
9.99969e-06
9.99971e-06
9.99977e-06
9.99988e-06
9.99995e-06
9.99998e-06
9.99996e-06
9.99995e-06
9.9999e-06
9.99987e-06
9.99986e-06
9.99989e-06
9.9999e-06
9.99988e-06
9.99984e-06
9.99987e-06
9.99991e-06
9.99996e-06
9.99997e-06
9.99992e-06
9.99979e-06
9.99967e-06
9.99959e-06
9.99962e-06
9.99969e-06
9.9998e-06
9.99992e-06
1.00001e-05
1.00001e-05
1.00001e-05
1e-05
9.99994e-06
9.99988e-06
9.99993e-06
1e-05
9.99999e-06
9.99989e-06
9.9997e-06
9.9996e-06
9.99959e-06
9.99968e-06
9.99977e-06
9.9999e-06
1e-05
1.00001e-05
1.00001e-05
1.00001e-05
1.00001e-05
1.00001e-05
1e-05
9.99994e-06
9.99991e-06
9.99987e-06
9.99984e-06
9.99986e-06
9.99988e-06
9.99992e-06
9.99998e-06
1.00001e-05
1.00002e-05
1.00002e-05
1.00002e-05
1.00002e-05
1.00002e-05
1.00001e-05
1e-05
9.99997e-06
9.99998e-06
9.99997e-06
9.99992e-06
9.9999e-06
9.99995e-06
1e-05
1.00001e-05
1e-05
9.99992e-06
9.99983e-06
9.99978e-06
9.99986e-06
9.99999e-06
1.00002e-05
1.00002e-05
1.00003e-05
1.00002e-05
1.00001e-05
9.99995e-06
9.99985e-06
9.99985e-06
9.99993e-06
1e-05
1e-05
9.99997e-06
9.99991e-06
9.99982e-06
9.9998e-06
9.9998e-06
9.99993e-06
1.00002e-05
1.00007e-05
1.00012e-05
1.00011e-05
9.99964e-06
9.99606e-06
9.99059e-06
9.98399e-06
9.97983e-06
9.98269e-06
9.99728e-06
1.00304e-05
1.00759e-05
1.01353e-05
1.01868e-05
1.02154e-05
1.0197e-05
1.01065e-05
9.94675e-06
9.68469e-06
9.39984e-06
9.05709e-06
8.80128e-06
8.64598e-06
8.67934e-06
8.94331e-06
9.43365e-06
1.03402e-05
1.1386e-05
1.29159e-05
1.44496e-05
1.64772e-05
1.8402e-05
2.09033e-05
2.30473e-05
2.52303e-05
2.75279e-05
2.99176e-05
3.21678e-05
3.43752e-05
3.65386e-05
3.8724e-05
4.09033e-05
4.29075e-05
4.5013e-05
4.71807e-05
4.92996e-05
5.12304e-05
5.32132e-05
5.55737e-05
5.74599e-05
5.91936e-05
6.06966e-05
6.24455e-05
6.41366e-05
6.56753e-05
6.72866e-05
6.88655e-05
7.0366e-05
7.1618e-05
7.28098e-05
7.39361e-05
7.48083e-05
7.57049e-05
7.63338e-05
7.7097e-05
7.78236e-05
7.84484e-05
7.91124e-05
7.98424e-05
8.04344e-05
8.10984e-05
8.15142e-05
8.19936e-05
8.23393e-05
8.25201e-05
8.26789e-05
8.28797e-05
8.29776e-05
8.31562e-05
8.31443e-05
8.31448e-05
8.29948e-05
8.26608e-05
8.21698e-05
8.15708e-05
8.0776e-05
7.98642e-05
7.8854e-05
7.7896e-05
7.69802e-05
7.61738e-05
7.5354e-05
7.44864e-05
7.34803e-05
7.24142e-05
7.13213e-05
7.04273e-05
6.97566e-05
6.91793e-05
6.83734e-05
6.74029e-05
6.64399e-05
6.55392e-05
6.44854e-05
6.33573e-05
6.2302e-05
6.14123e-05
6.06806e-05
6.02592e-05
5.98801e-05
5.93213e-05
5.88559e-05
5.84127e-05
5.78154e-05
5.72637e-05
5.71038e-05
5.71102e-05
5.74775e-05
5.828e-05
5.95844e-05
6.09073e-05
6.26913e-05
6.43686e-05
6.64202e-05
6.82068e-05
7.03747e-05
7.23883e-05
7.46106e-05
7.69119e-05
7.89627e-05
8.11563e-05
8.348e-05
8.62506e-05
8.93406e-05
9.262e-05
9.58042e-05
9.9509e-05
0.000103442
0.000107489
0.000112431
0.000115011
0.000115263
0.00011277
0.000107383
9.958e-05
8.97193e-05
8.19661e-05
8.03961e-05
9.51751e-05
0.000160797
0.000239538
0.000285445
0.000308846
0.000329267
0.000333269
0.000335647
0.000345292
0.000349874
0.000374583
0.000342551
0.000324629
0.000341732
0.000340167
0.00036376
0.000369532
0.000396121
0.000359553
0.000370241
0.00033862
0.000325707
0.000345154
0.000357555
0.000343044
0.000372417
0.000363412
0.000337633
0.00035306
0.000349949
0.000361122
0.000355451
0.000358486
0.00035081
0.000335152
0.000350321
0.000342899
0.000343196
0.000338988
0.000346103
0.000342833
0.000355412
0.000386461
0.000344894
0.000361297
0.000344262
0.000361849
0.000346157
0.000349991
0.000346018
0.00037008
0.00034885
0.000344022
0.000341347
0.000344506
0.000355756
0.000360611
0.000378497
0.000330087
0.000363063
0.000370403
0.000341056
0.000344859
0.000347407
0.00032901
0.00034313
0.00033567
0.000336813
0.000327001
0.00034791
0.000341054
0.000333898
0.000345864
0.000342596
0.000356677
0.000345345
0.000347031
0.000336727
0.000336863
0.00034589
0.000352876
0.00034721
0.000332173
0.000329428
0.000331683
0.000323838
0.000333115
0.000334646
0.000344958
0.000349018
0.000351876
0.00034387
0.000356592
0.000357519
0.000371471
0.000354575
0.000347952
0.000347752
0.000355063
0.0003312
0.000323391
0.00033828
0.000334779
0.000346735
0.000338374
0.000342119
0.000360363
0.000351185
0.000351243
0.000380027
0.000347595
0.00033671
0.000337501
0.000326147