/*--------------------------------*- C++ -*----------------------------------*\
| =========                 |                                                 |
| \\      /  F ield         | foam-extend: Open Source CFD                    |
|  \\    /   O peration     | Version:     4.0                                |
|   \\  /    A nd           | Web:         http://www.foam-extend.org         |
|    \\/     M anipulation  |                                                 |
\*---------------------------------------------------------------------------*/
FoamFile
{
    version     2.0;
    format      ascii;
    class       volScalarField;
    location    "0.009";
    object      h;
}
// * * * * * * * * * * * * * * * * * * * * * * * * * * * * * * * * * * * * * //

dimensions      [0 1 0 0 0 0 0];

internalField   nonuniform List<scalar> 
176451
(
1.00064e-05
9.99915e-06
9.99515e-06
9.99905e-06
9.99946e-06
1.00018e-05
9.9983e-06
9.99891e-06
1.00016e-05
9.99891e-06
1.00006e-05
1.00049e-05
9.99961e-06
1.00002e-05
9.99845e-06
9.99693e-06
9.99985e-06
9.99844e-06
1.00039e-05
9.99804e-06
1.00006e-05
1.00001e-05
9.99926e-06
1.00012e-05
1.00019e-05
1.00013e-05
1.00026e-05
9.99913e-06
9.99876e-06
1.00017e-05
9.99669e-06
1.00002e-05
1.00015e-05
9.99888e-06
9.99749e-06
1.00045e-05
1.00034e-05
1.00009e-05
9.99899e-06
1.00006e-05
9.99719e-06
1.0006e-05
9.99652e-06
1e-05
9.99978e-06
9.99956e-06
1.00006e-05
9.99867e-06
1.00012e-05
1.00016e-05
1.00053e-05
9.99622e-06
1.00004e-05
9.99898e-06
1.00003e-05
1.0002e-05
1.00004e-05
1.00008e-05
9.99807e-06
1.00003e-05
1.00027e-05
9.99944e-06
9.99642e-06
1.00005e-05
9.99899e-06
1.00052e-05
1.00001e-05
1.00012e-05
1.00023e-05
9.99885e-06
9.99834e-06
1.00003e-05
1.00007e-05
1.00011e-05
1.00021e-05
1.00019e-05
1.00012e-05
1.00005e-05
1.00007e-05
9.99701e-06
9.99758e-06
1.00082e-05
9.99915e-06
9.99595e-06
1.00011e-05
1.00006e-05
9.99796e-06
9.9997e-06
1.00028e-05
9.99935e-06
1.00045e-05
9.99869e-06
1.00076e-05
9.99896e-06
1.00012e-05
9.99757e-06
9.99769e-06
1.00002e-05
1.00022e-05
9.99601e-06
1.00033e-05
9.99849e-06
1.00026e-05
9.99621e-06
1.0001e-05
9.99919e-06
1.00043e-05
1.00024e-05
1.00011e-05
1.00032e-05
1.00038e-05
9.99992e-06
1.00026e-05
9.9994e-06
1.00001e-05
1.00046e-05
1.00022e-05
9.99664e-06
1.00031e-05
1.00022e-05
1.00007e-05
9.99609e-06
9.9991e-06
9.99527e-06
1.0002e-05
1.0002e-05
9.99724e-06
1.00022e-05
9.99681e-06
1.00008e-05
1.00024e-05
1.00033e-05
9.99891e-06
1.00005e-05
1.00024e-05
9.99733e-06
1.00049e-05
9.99806e-06
1.00004e-05
9.9994e-06
1.00011e-05
9.99658e-06
1.00036e-05
1.00029e-05
9.99686e-06
9.9991e-06
9.9995e-06
1.00017e-05
9.99983e-06
9.99575e-06
1.00047e-05
1.00006e-05
9.99784e-06
1.00026e-05
9.997e-06
1.00004e-05
9.9969e-06
9.99983e-06
1.00006e-05
9.99891e-06
1.00014e-05
9.99947e-06
9.99679e-06
9.9995e-06
9.99756e-06
1.00022e-05
1.00036e-05
1.00013e-05
9.9968e-06
1.00034e-05
9.99766e-06
9.99468e-06
1.00028e-05
1.00013e-05
1.00013e-05
9.99761e-06
1.00084e-05
9.99579e-06
9.99964e-06
1.00008e-05
9.99937e-06
1.00021e-05
9.99781e-06
9.99885e-06
9.99869e-06
1e-05
9.99924e-06
1.00002e-05
1.00044e-05
1.00022e-05
9.99821e-06
9.99559e-06
9.99293e-06
9.99076e-06
9.98955e-06
9.98968e-06
9.99107e-06
9.99325e-06
9.9958e-06
9.99816e-06
1.00001e-05
1.00015e-05
1.00024e-05
1.00031e-05
1.00037e-05
1.0004e-05
1.00042e-05
1.00041e-05
1.00036e-05
1.00026e-05
1.00012e-05
9.99957e-06
9.99785e-06
9.9963e-06
9.99521e-06
9.99488e-06
9.99544e-06
9.99681e-06
9.99888e-06
1.00013e-05
1.00036e-05
1.00056e-05
1.0007e-05
1.00079e-05
1.00085e-05
1.0009e-05
1.00097e-05
1.00105e-05
1.00115e-05
1.00121e-05
1.00122e-05
1.00117e-05
1.00104e-05
1.00084e-05
1.00059e-05
1.00034e-05
1.00011e-05
9.99922e-06
9.99817e-06
9.99779e-06
9.99806e-06
9.99872e-06
9.9996e-06
1.00006e-05
1.00014e-05
1.00022e-05
1.00027e-05
1.00031e-05
1.00034e-05
1.00036e-05
1.0004e-05
1.00044e-05
1.00048e-05
1.00052e-05
1.00052e-05
1.00049e-05
1.0004e-05
1.00025e-05
1.00007e-05
9.9989e-06
9.99723e-06
9.99597e-06
9.99545e-06
9.99566e-06
9.99651e-06
9.99789e-06
9.99948e-06
1.00011e-05
1.00023e-05
1.00031e-05
1.00035e-05
1.00038e-05
1.0004e-05
1.00043e-05
1.00049e-05
1.00053e-05
1.00054e-05
1.0005e-05
1.0004e-05
1.00024e-05
1.00006e-05
9.9988e-06
9.9973e-06
9.99615e-06
9.9954e-06
9.99499e-06
9.99492e-06
9.99496e-06
9.99501e-06
9.99504e-06
9.99511e-06
9.99517e-06
9.99526e-06
9.99546e-06
9.99585e-06
9.99636e-06
9.99697e-06
9.99772e-06
9.99857e-06
9.99937e-06
9.99995e-06
1.00002e-05
1.00002e-05
9.99995e-06
9.99951e-06
9.99912e-06
9.99899e-06
9.99907e-06
9.99932e-06
9.99966e-06
9.99998e-06
1.00001e-05
9.99975e-06
9.99909e-06
9.99827e-06
9.99737e-06
9.99662e-06
9.99622e-06
9.99637e-06
9.99692e-06
9.99769e-06
9.99857e-06
9.99945e-06
1.00002e-05
1.00008e-05
1.00013e-05
1.00017e-05
1.0002e-05
1.0002e-05
1.00019e-05
1.00017e-05
1.00014e-05
1.00011e-05
1.00009e-05
1.00009e-05
1.00009e-05
1.0001e-05
1.00012e-05
1.00014e-05
1.00014e-05
1.00014e-05
1.00012e-05
1.00008e-05
1.00003e-05
9.99962e-06
9.99879e-06
9.99773e-06
9.99656e-06
9.99547e-06
9.99462e-06
9.99415e-06
9.99425e-06
9.995e-06
9.99643e-06
9.99844e-06
1.0001e-05
1.00039e-05
1.00068e-05
1.00092e-05
1.00106e-05
1.00106e-05
1.00091e-05
1.00062e-05
1.00026e-05
9.99901e-06
9.99604e-06
9.99415e-06
9.99353e-06
9.99403e-06
9.99528e-06
9.99678e-06
9.99815e-06
9.99912e-06
9.99963e-06
9.99967e-06
9.99948e-06
9.99931e-06
9.99934e-06
9.99957e-06
1e-05
1.00007e-05
1.00014e-05
1.0002e-05
1.00024e-05
1.00027e-05
1.00029e-05
1.00027e-05
1.00022e-05
1.00016e-05
1.00009e-05
1.00001e-05
9.99921e-06
9.99843e-06
9.99772e-06
9.99705e-06
9.99649e-06
9.9961e-06
9.99589e-06
9.9958e-06
9.99587e-06
9.99614e-06
9.99668e-06
9.99748e-06
9.99863e-06
1.00001e-05
1.00016e-05
1.0003e-05
1.00038e-05
1.0004e-05
1.00035e-05
1.00024e-05
1.00009e-05
9.99938e-06
9.99803e-06
9.99697e-06
9.99637e-06
9.99631e-06
9.99676e-06
9.99754e-06
9.99847e-06
9.99932e-06
9.99987e-06
9.99995e-06
9.99964e-06
9.99915e-06
9.99866e-06
9.99837e-06
9.99845e-06
9.99892e-06
9.9997e-06
1.00006e-05
1.00014e-05
1.00021e-05
1.00026e-05
1.00026e-05
1.00024e-05
1.0002e-05
1.00013e-05
1.00004e-05
9.99948e-06
9.99859e-06
9.99797e-06
9.99752e-06
9.9974e-06
9.99752e-06
9.99774e-06
9.99796e-06
9.99827e-06
9.99861e-06
9.99889e-06
9.99899e-06
9.99889e-06
9.9985e-06
9.99785e-06
9.997e-06
9.99632e-06
9.99605e-06
9.9963e-06
9.99703e-06
9.99819e-06
9.99965e-06
1.00012e-05
1.00026e-05
1.00037e-05
1.00045e-05
1.00047e-05
1.00043e-05
1.00036e-05
1.00025e-05
1.00014e-05
1.00004e-05
9.99984e-06
9.9997e-06
9.99997e-06
1.00004e-05
1.0001e-05
1.00015e-05
1.00019e-05
1.00021e-05
1.00021e-05
1.00021e-05
1.00022e-05
1.00024e-05
1.00026e-05
1.00029e-05
1.0003e-05
1.00028e-05
1.00023e-05
1.00018e-05
1.00012e-05
1.00007e-05
1.00004e-05
1.00004e-05
1.00004e-05
1.00003e-05
1e-05
9.99951e-06
9.99877e-06
9.99785e-06
9.99706e-06
9.99658e-06
9.99655e-06
9.99701e-06
9.99794e-06
9.99907e-06
1.00001e-05
1.0001e-05
1.00014e-05
1.00013e-05
1.00008e-05
9.99995e-06
9.99902e-06
9.99804e-06
9.9971e-06
9.99617e-06
9.99555e-06
9.99527e-06
9.99539e-06
9.99597e-06
9.99711e-06
9.99874e-06
1.00006e-05
1.00025e-05
1.0004e-05
1.0005e-05
1.00054e-05
1.00049e-05
1.00038e-05
1.00022e-05
1.00003e-05
9.99855e-06
9.99726e-06
9.99665e-06
9.99677e-06
9.99744e-06
9.99832e-06
9.99916e-06
9.9998e-06
1.00002e-05
1.00003e-05
1.00001e-05
9.99992e-06
9.99963e-06
9.99934e-06
9.99922e-06
9.99954e-06
1.00005e-05
1.00019e-05
1.00038e-05
1.00057e-05
1.0007e-05
1.00075e-05
1.00068e-05
1.00051e-05
1.00029e-05
1.00005e-05
9.99845e-06
9.99697e-06
9.99608e-06
9.99564e-06
9.99556e-06
9.99582e-06
9.99646e-06
9.99744e-06
9.99879e-06
1.00003e-05
1.00017e-05
1.00026e-05
1.00027e-05
1.00022e-05
1.00012e-05
1e-05
9.99912e-06
9.99868e-06
9.99872e-06
9.99904e-06
9.99945e-06
9.99978e-06
9.9999e-06
9.9997e-06
9.99927e-06
9.99875e-06
9.99826e-06
9.99792e-06
9.99787e-06
9.99818e-06
9.99878e-06
9.99947e-06
1.00001e-05
1.00005e-05
1.00006e-05
1.00003e-05
9.9999e-06
9.99945e-06
9.99908e-06
9.99881e-06
9.99866e-06
9.99864e-06
9.99874e-06
9.99887e-06
9.9991e-06
9.99946e-06
9.99995e-06
1.00005e-05
1.0001e-05
1.00016e-05
1.00021e-05
1.00025e-05
1.00029e-05
1.00032e-05
1.00036e-05
1.00038e-05
1.00039e-05
1.00038e-05
1.00033e-05
1.00025e-05
1.00013e-05
9.99993e-06
9.99854e-06
9.99734e-06
9.99656e-06
9.99642e-06
9.99693e-06
9.99793e-06
9.99928e-06
1.00007e-05
1.00019e-05
1.00026e-05
1.00027e-05
1.0002e-05
1.00007e-05
9.99898e-06
9.99721e-06
9.9958e-06
9.99501e-06
9.99493e-06
9.99564e-06
9.99697e-06
9.9985e-06
9.99986e-06
1.00006e-05
1.00006e-05
9.99997e-06
9.99873e-06
9.99759e-06
9.99686e-06
9.99691e-06
9.99768e-06
9.99893e-06
1.00004e-05
1.00015e-05
1.00022e-05
1.00023e-05
1.00018e-05
1.00012e-05
1.00003e-05
9.99946e-06
9.99858e-06
9.99779e-06
9.99696e-06
9.9964e-06
9.9962e-06
9.99652e-06
9.99738e-06
9.99876e-06
1.00006e-05
1.00025e-05
1.00042e-05
1.00055e-05
1.00063e-05
1.00065e-05
1.00059e-05
1.00049e-05
1.00036e-05
1.00024e-05
1.00012e-05
1.00006e-05
1.00004e-05
1.00003e-05
1.00002e-05
9.99986e-06
9.99911e-06
9.99814e-06
9.99714e-06
9.99649e-06
9.99635e-06
9.99669e-06
9.99743e-06
9.99834e-06
9.99923e-06
9.99983e-06
1.00001e-05
1.00002e-05
1.00002e-05
9.99999e-06
9.99976e-06
9.99947e-06
9.99924e-06
9.9991e-06
9.99912e-06
9.99937e-06
9.99989e-06
1.00005e-05
1.00011e-05
1.00014e-05
1.00014e-05
1.0001e-05
1.00005e-05
9.99995e-06
9.99958e-06
9.99958e-06
9.99989e-06
1.00004e-05
1.0001e-05
1.00015e-05
1.00018e-05
1.0002e-05
1.00021e-05
1.00021e-05
1.0002e-05
1.00018e-05
1.00015e-05
1.00008e-05
1e-05
9.99931e-06
9.99879e-06
9.99873e-06
9.99911e-06
9.99983e-06
1.00007e-05
1.00015e-05
1.00019e-05
1.00018e-05
1.00012e-05
1.00003e-05
9.99937e-06
9.99868e-06
9.99841e-06
9.99866e-06
9.99936e-06
1.00003e-05
1.00013e-05
1.00023e-05
1.0003e-05
1.00033e-05
1.00032e-05
1.00028e-05
1.0002e-05
1.00008e-05
9.99945e-06
9.99808e-06
9.99682e-06
9.99584e-06
9.9953e-06
9.99532e-06
9.99583e-06
9.99665e-06
9.99764e-06
9.99865e-06
9.99963e-06
1.00005e-05
1.00013e-05
1.00021e-05
1.0003e-05
1.00038e-05
1.00044e-05
1.00046e-05
1.00042e-05
1.00031e-05
1.00014e-05
9.99938e-06
9.99734e-06
9.99558e-06
9.99449e-06
9.99436e-06
9.99524e-06
9.99689e-06
9.99905e-06
1.00012e-05
1.00031e-05
1.00041e-05
1.00043e-05
1.00036e-05
1.00024e-05
1.00008e-05
9.99905e-06
9.99758e-06
9.99642e-06
9.9956e-06
9.99514e-06
9.99508e-06
9.99547e-06
9.9963e-06
9.99766e-06
9.99944e-06
1.00014e-05
1.00032e-05
1.00044e-05
1.00048e-05
1.00043e-05
1.0003e-05
1.00013e-05
9.9997e-06
9.99848e-06
9.99776e-06
9.99761e-06
9.99795e-06
9.99861e-06
9.99933e-06
1e-05
1.00005e-05
1.00007e-05
1.00006e-05
1.00003e-05
1.00001e-05
9.99996e-06
1.00001e-05
1.00006e-05
1.00014e-05
1.00023e-05
1.0003e-05
1.00033e-05
1.00032e-05
1.00026e-05
1.00017e-05
1.00008e-05
1.00001e-05
9.99962e-06
9.99938e-06
9.99938e-06
9.9994e-06
9.9993e-06
9.99893e-06
9.99836e-06
9.9976e-06
9.99691e-06
9.99631e-06
9.99608e-06
9.99629e-06
9.99689e-06
9.9978e-06
9.99894e-06
1.00002e-05
1.00013e-05
1.00022e-05
1.00027e-05
1.00028e-05
1.00024e-05
1.00017e-05
1.00008e-05
9.99995e-06
9.99937e-06
9.99899e-06
9.99896e-06
9.99922e-06
9.99964e-06
1.00001e-05
1.00004e-05
1.00007e-05
1.00007e-05
1.00006e-05
1.00003e-05
1.00001e-05
9.99992e-06
9.99981e-06
9.99987e-06
1.00001e-05
1.00005e-05
1.00009e-05
1.00014e-05
1.00018e-05
1.00018e-05
1.00016e-05
1.0001e-05
1.00002e-05
9.99917e-06
9.9982e-06
9.99743e-06
9.99702e-06
9.99698e-06
9.9973e-06
9.99796e-06
9.99889e-06
9.99991e-06
1.00009e-05
1.00017e-05
1.00023e-05
1.00025e-05
1.00024e-05
1.00021e-05
1.00017e-05
1.00012e-05
1.00006e-05
1.00002e-05
9.99985e-06
9.99969e-06
9.99968e-06
9.99979e-06
9.99995e-06
1.00001e-05
9.99999e-06
9.99972e-06
9.99922e-06
9.99854e-06
9.99785e-06
9.99733e-06
9.99715e-06
9.9974e-06
9.998e-06
9.99886e-06
9.99977e-06
1.00005e-05
1.00007e-05
1.00004e-05
9.99974e-06
9.99889e-06
9.99809e-06
9.99764e-06
9.99766e-06
9.99817e-06
9.99902e-06
9.99999e-06
1.00008e-05
1.00014e-05
1.00017e-05
1.00017e-05
1.00015e-05
1.00013e-05
1.00012e-05
1.00012e-05
1.00013e-05
1.00015e-05
1.00017e-05
1.00018e-05
1.00018e-05
1.00016e-05
1.00014e-05
1.0001e-05
1.00004e-05
9.99977e-06
9.99914e-06
9.9985e-06
9.99793e-06
9.99753e-06
9.99733e-06
9.99735e-06
9.99763e-06
9.99814e-06
9.99882e-06
9.99948e-06
1e-05
1.00003e-05
1.00004e-05
1.00003e-05
1.00002e-05
1.00002e-05
1.00004e-05
1.00009e-05
1.00016e-05
1.00023e-05
1.00028e-05
1.00031e-05
1.00029e-05
1.00025e-05
1.00019e-05
1.00011e-05
1.00004e-05
9.99995e-06
9.99968e-06
9.99958e-06
9.9996e-06
9.99969e-06
9.99976e-06
9.99966e-06
9.99937e-06
9.99898e-06
9.99856e-06
9.99821e-06
9.99806e-06
9.99819e-06
9.99856e-06
9.99899e-06
9.99939e-06
9.99968e-06
9.99985e-06
9.9999e-06
9.99998e-06
1.00002e-05
1.00007e-05
1.00013e-05
1.00019e-05
1.00023e-05
1.00024e-05
1.00019e-05
1.00009e-05
9.99966e-06
9.99832e-06
9.99716e-06
9.99641e-06
9.99623e-06
9.99657e-06
9.99723e-06
9.99805e-06
9.99885e-06
9.99949e-06
9.99983e-06
9.99988e-06
9.99975e-06
9.99954e-06
9.99931e-06
9.99919e-06
9.99929e-06
9.99963e-06
1.00001e-05
1.00006e-05
1.00011e-05
1.00014e-05
1.00013e-05
1.00011e-05
1.00007e-05
1.00002e-05
9.99977e-06
9.99962e-06
9.99982e-06
1.00003e-05
1.0001e-05
1.00016e-05
1.00021e-05
1.00021e-05
1.00017e-05
1.0001e-05
1.00001e-05
9.99932e-06
9.99871e-06
9.99857e-06
9.99884e-06
9.99939e-06
1e-05
1.00005e-05
1.00007e-05
1.00007e-05
1.00004e-05
1.00001e-05
9.99979e-06
9.99969e-06
9.99977e-06
1.00001e-05
1.00006e-05
1.00011e-05
1.00017e-05
1.00021e-05
1.00023e-05
1.00023e-05
1.00021e-05
1.00018e-05
1.00013e-05
1.00006e-05
9.99996e-06
9.99946e-06
9.99909e-06
9.99894e-06
9.99894e-06
9.99911e-06
9.99936e-06
9.99958e-06
9.99966e-06
9.99964e-06
9.99947e-06
9.9993e-06
9.99913e-06
9.99913e-06
9.99924e-06
9.99953e-06
9.99988e-06
1.00002e-05
1.00004e-05
1.00005e-05
1.00004e-05
1.00004e-05
1.00003e-05
1.00003e-05
1.00004e-05
1.00004e-05
1.00005e-05
1.00004e-05
1.00003e-05
1e-05
9.99971e-06
9.99946e-06
9.99923e-06
9.99911e-06
9.99903e-06
9.99901e-06
9.999e-06
9.99908e-06
9.99925e-06
9.99957e-06
1.00001e-05
1.00007e-05
1.00015e-05
1.00022e-05
1.00028e-05
1.0003e-05
1.00028e-05
1.00023e-05
1.00014e-05
1.00006e-05
9.99967e-06
9.99897e-06
9.99847e-06
9.9983e-06
9.99838e-06
9.99865e-06
9.99902e-06
9.99947e-06
9.99988e-06
1.00002e-05
1.00005e-05
1.00006e-05
1.00008e-05
1.00009e-05
1.00011e-05
1.00012e-05
1.00012e-05
1.00013e-05
1.00012e-05
1.0001e-05
1.00007e-05
1.00003e-05
9.99977e-06
9.99923e-06
9.99871e-06
9.99833e-06
9.9981e-06
9.99801e-06
9.9981e-06
9.99842e-06
9.99895e-06
9.99955e-06
1.00002e-05
1.00007e-05
1.00012e-05
1.00013e-05
1.00012e-05
1.00009e-05
1.00003e-05
9.99957e-06
9.99877e-06
9.99808e-06
9.99759e-06
9.99734e-06
9.99741e-06
9.9978e-06
9.99848e-06
9.99928e-06
1.00001e-05
1.00009e-05
1.00015e-05
1.00019e-05
1.00021e-05
1.00021e-05
1.0002e-05
1.00017e-05
1.00014e-05
1.0001e-05
1.00006e-05
1e-05
9.99952e-06
9.99908e-06
9.9988e-06
9.99868e-06
9.99877e-06
9.99906e-06
9.99951e-06
9.99997e-06
1.00004e-05
1.00008e-05
1.0001e-05
1.00011e-05
1.0001e-05
1.00008e-05
1.00006e-05
1.00004e-05
1.00001e-05
9.99991e-06
9.99971e-06
9.99949e-06
9.9993e-06
9.99923e-06
9.99926e-06
9.99935e-06
9.99955e-06
9.9999e-06
1.00004e-05
1.00007e-05
1.00009e-05
1.00009e-05
1.00007e-05
1.00002e-05
9.99977e-06
9.99945e-06
9.99936e-06
9.99943e-06
9.99965e-06
9.99992e-06
1.00001e-05
1.00002e-05
1e-05
9.99979e-06
9.99957e-06
9.99932e-06
9.9991e-06
9.99898e-06
9.999e-06
9.9991e-06
9.99925e-06
9.99948e-06
9.99979e-06
1.00001e-05
1.00003e-05
1.00005e-05
1.00007e-05
1.00008e-05
1.00008e-05
1.00008e-05
1.00007e-05
1.00005e-05
1.00004e-05
1.00003e-05
1.00003e-05
1.00003e-05
1.00003e-05
1.00003e-05
1.00003e-05
1.00002e-05
1e-05
9.99988e-06
9.99982e-06
9.99979e-06
9.99985e-06
9.99999e-06
1.00002e-05
1.00004e-05
1.00005e-05
1.00006e-05
1.00006e-05
1.00005e-05
1.00003e-05
1.00001e-05
9.99997e-06
9.99976e-06
9.99959e-06
9.9995e-06
9.99952e-06
9.99958e-06
9.99969e-06
9.99983e-06
1e-05
1.00002e-05
1.00003e-05
1.00003e-05
1.00003e-05
1.00004e-05
1.00004e-05
1.00004e-05
1.00005e-05
1.00004e-05
1.00002e-05
1.00001e-05
9.99997e-06
9.99987e-06
9.99985e-06
9.99987e-06
9.99997e-06
1.00001e-05
1.00002e-05
1.00003e-05
1.00003e-05
1.00002e-05
1.00001e-05
9.99985e-06
9.99965e-06
9.99942e-06
9.9993e-06
9.99925e-06
9.99934e-06
9.99947e-06
9.99964e-06
9.99981e-06
9.99999e-06
1.00001e-05
1.00003e-05
1.00004e-05
1.00005e-05
1.00005e-05
1.00004e-05
1.00003e-05
1.00002e-05
1e-05
9.99987e-06
9.99976e-06
9.99971e-06
9.99969e-06
9.99976e-06
9.99985e-06
9.99997e-06
1.00001e-05
1.00002e-05
1.00002e-05
1.00003e-05
1.00003e-05
1.00003e-05
1.00003e-05
1.00002e-05
1e-05
9.99979e-06
9.99948e-06
9.99918e-06
9.99896e-06
9.99881e-06
9.99881e-06
9.999e-06
9.99937e-06
9.99976e-06
1.00001e-05
1.00004e-05
1.00006e-05
1.00008e-05
1.00008e-05
1.00008e-05
1.00008e-05
1.00007e-05
1.00006e-05
1.00004e-05
1.00003e-05
1e-05
9.99974e-06
9.9995e-06
9.99932e-06
9.99917e-06
9.99908e-06
9.9991e-06
9.9992e-06
9.99934e-06
9.99953e-06
9.99977e-06
1.00001e-05
1.00003e-05
1.00004e-05
1.00004e-05
1.00004e-05
1.00003e-05
1.00001e-05
9.99986e-06
9.99974e-06
9.99965e-06
9.99963e-06
9.99971e-06
9.99987e-06
1e-05
1.00002e-05
1.00003e-05
1.00004e-05
1.00004e-05
1.00003e-05
1.00002e-05
1.00001e-05
9.99991e-06
9.99973e-06
9.99959e-06
9.99949e-06
9.99937e-06
9.9993e-06
9.99934e-06
9.99947e-06
9.99959e-06
9.9997e-06
9.99983e-06
9.99999e-06
1.00001e-05
1.00002e-05
1.00002e-05
1.00002e-05
1.00001e-05
9.99996e-06
9.99984e-06
9.99977e-06
9.99973e-06
9.99974e-06
9.99983e-06
9.99997e-06
1.00001e-05
1.00001e-05
1.00001e-05
1.00001e-05
9.99995e-06
9.99978e-06
9.99963e-06
9.99954e-06
9.99949e-06
9.99949e-06
9.99958e-06
9.99974e-06
9.99987e-06
9.99997e-06
1.00001e-05
1.00001e-05
1.00002e-05
1.00002e-05
1.00002e-05
1.00002e-05
1.00002e-05
1.00002e-05
1.00002e-05
1.00002e-05
1.00001e-05
1e-05
9.9999e-06
9.99987e-06
9.99988e-06
9.99996e-06
1.00001e-05
1.00002e-05
1.00002e-05
1.00002e-05
1.00001e-05
1e-05
9.99991e-06
9.99981e-06
9.99972e-06
9.99974e-06
9.99979e-06
9.9999e-06
1e-05
1.00001e-05
1.00002e-05
1.00002e-05
1.00002e-05
1.00002e-05
1.00001e-05
1.00001e-05
9.99998e-06
9.99996e-06
9.99993e-06
9.99992e-06
9.99992e-06
9.99996e-06
9.99996e-06
9.99997e-06
9.99996e-06
1e-05
1.00001e-05
1.00001e-05
1.00001e-05
1.00002e-05
1.00001e-05
1.00001e-05
1e-05
9.99997e-06
9.99993e-06
9.99997e-06
9.99998e-06
1e-05
9.99999e-06
1e-05
1e-05
1.00001e-05
1.00001e-05
1e-05
9.99997e-06
9.99995e-06
9.99992e-06
9.99997e-06
1e-05
1.00001e-05
1.00002e-05
1.00002e-05
1.00001e-05
1.00001e-05
9.99994e-06
9.99987e-06
9.99983e-06
9.99984e-06
9.99984e-06
9.99986e-06
9.99986e-06
9.99989e-06
9.99989e-06
9.99992e-06
9.99996e-06
9.99998e-06
9.99997e-06
9.99991e-06
9.99984e-06
9.99977e-06
9.99969e-06
9.9997e-06
9.99979e-06
9.9999e-06
1e-05
1.00001e-05
1.00001e-05
1.00001e-05
1e-05
9.99988e-06
9.99975e-06
9.99969e-06
9.99973e-06
9.99981e-06
9.99986e-06
9.99993e-06
1e-05
1e-05
1e-05
1e-05
1.00001e-05
1e-05
9.99996e-06
9.99996e-06
1e-05
1e-05
9.99996e-06
9.9999e-06
9.99987e-06
9.99985e-06
9.99996e-06
1.00003e-05
1.00008e-05
1.00015e-05
1.0002e-05
1.00021e-05
1.00016e-05
1e-05
9.99747e-06
9.9941e-06
9.99006e-06
9.98617e-06
9.98301e-06
9.98094e-06
9.98023e-06
9.98084e-06
9.98266e-06
9.98581e-06
9.99153e-06
9.99948e-06
1.00102e-05
1.00246e-05
1.00448e-05
1.00679e-05
1.00927e-05
1.01184e-05
1.01449e-05
1.01673e-05
1.01834e-05
1.01924e-05
1.01915e-05
1.01804e-05
1.01597e-05
1.01298e-05
1.00843e-05
1.00291e-05
9.9626e-06
9.87681e-06
9.75126e-06
9.59419e-06
9.40438e-06
9.18817e-06
8.95804e-06
8.78002e-06
8.71003e-06
8.79723e-06
9.10862e-06
9.61044e-06
1.02563e-05
1.09899e-05
1.18436e-05
1.26933e-05
1.35263e-05
1.43849e-05
1.54017e-05
1.64919e-05
1.76762e-05
1.89831e-05
2.05431e-05
2.21916e-05
2.3892e-05
2.56315e-05
2.75132e-05
2.93558e-05
3.11231e-05
3.28083e-05
3.45505e-05
3.61648e-05
3.76342e-05
3.89775e-05
4.03204e-05
4.15194e-05
4.2561e-05
4.34773e-05
4.43825e-05
4.51685e-05
4.58182e-05
4.63702e-05
4.68948e-05
4.73134e-05
4.75778e-05
4.78938e-05
4.80745e-05
4.81918e-05
4.81981e-05
4.81332e-05
4.78928e-05
4.76009e-05
4.72418e-05
4.68166e-05
4.63436e-05
4.58212e-05
4.52567e-05
4.46106e-05
4.3947e-05
4.32303e-05
4.25446e-05
4.1757e-05
4.09128e-05
3.98965e-05
3.87904e-05
3.74984e-05
3.6191e-05
3.47729e-05
3.34104e-05
3.19819e-05
3.06052e-05
2.90778e-05
2.74715e-05
2.55647e-05
2.35266e-05
2.11512e-05
1.87266e-05
1.62672e-05
1.437e-05
1.34999e-05
1.46196e-05
1.83862e-05
2.3741e-05
2.96215e-05
3.40109e-05
3.63275e-05
3.45967e-05
2.83361e-05
2.39831e-05
3.12319e-05
4.51076e-05
5.56269e-05
6.32051e-05
6.94504e-05
7.29324e-05
7.43329e-05
7.47757e-05
7.47808e-05
7.41956e-05
7.33109e-05
7.18772e-05
7.0509e-05
6.92974e-05
6.8287e-05
6.75266e-05
6.70452e-05
6.69025e-05
6.69906e-05
6.71516e-05
6.73835e-05
6.76389e-05
6.79333e-05
6.81974e-05
6.84638e-05
6.86856e-05
6.88841e-05
6.89933e-05
6.9125e-05
6.91164e-05
6.90496e-05
6.90188e-05
6.88991e-05
6.88038e-05
6.87116e-05
6.85879e-05
6.85688e-05
6.84926e-05
6.8495e-05
6.84752e-05
6.84954e-05
6.85061e-05
6.84331e-05
6.84408e-05
6.83919e-05
6.83927e-05
6.83994e-05
6.84454e-05
6.84502e-05
6.84555e-05
6.84635e-05
6.84935e-05
6.85335e-05
6.86312e-05
6.87074e-05
6.87605e-05
6.8823e-05
6.88745e-05
6.88791e-05
6.88755e-05
6.88819e-05
6.88746e-05
6.88392e-05
6.88147e-05
6.882e-05
6.8828e-05
6.88113e-05
6.88062e-05
6.88291e-05
6.88507e-05
6.88381e-05
6.88326e-05
6.88505e-05
6.88633e-05
6.88392e-05
6.88223e-05
6.88302e-05
6.88336e-05
6.88e-05
6.87748e-05
6.87753e-05
6.87728e-05
6.87378e-05
6.8715e-05
6.87214e-05
6.87296e-05
6.87108e-05
6.87073e-05
6.87366e-05
6.87689e-05
6.87704e-05
6.87798e-05
6.8809e-05
6.88234e-05
6.87864e-05
6.87406e-05
6.87058e-05
6.86607e-05
6.85745e-05
6.85133e-05
6.8509e-05
6.85362e-05
6.85456e-05
6.86029e-05
6.87237e-05
6.88571e-05
6.89484e-05
6.90146e-05
6.90486e-05
6.9001e-05
6.8845e-05
6.86411e-05
6.84425e-05
6.82881e-05
6.81958e-05
6.8243e-05
6.84769e-05
6.88557e-05
6.92665e-05
6.96539e-05
6.9947e-05
7.00096e-05
6.97333e-05
6.91162e-05
6.82445e-05
6.73845e-05
6.67846e-05
6.66557e-05
6.7238e-05
6.87022e-05
7.08057e-05
7.29083e-05
7.43567e-05
7.47683e-05
7.34574e-05
6.81779e-05
5.61982e-05
3.89545e-05
2.62675e-05
2.3638e-05
2.5777e-05
2.75959e-05
2.80896e-05
2.87416e-05
2.88461e-05
2.75453e-05
2.51631e-05
2.31723e-05
2.21843e-05
2.17091e-05
2.1519e-05
2.20486e-05
2.31503e-05
2.43778e-05
2.55122e-05
2.66196e-05
2.78147e-05
2.912e-05
3.0339e-05
3.14938e-05
3.25087e-05
3.35666e-05
3.46388e-05
3.57409e-05
3.67467e-05
3.76884e-05
3.84508e-05
3.90968e-05
3.95549e-05
3.98237e-05
3.99286e-05
3.99039e-05
3.98045e-05
3.9614e-05
3.93637e-05
3.90029e-05
3.8559e-05
3.79338e-05
3.71885e-05
3.6304e-05
3.54246e-05
3.44679e-05
3.36078e-05
3.28053e-05
3.21807e-05
3.16118e-05
3.11839e-05
3.08857e-05
3.07576e-05
3.07071e-05
3.07327e-05
3.08162e-05
3.09515e-05
3.10119e-05
3.09906e-05
3.08877e-05
3.07727e-05
3.05555e-05
3.02538e-05
3.01199e-05
2.97325e-05
2.94125e-05
2.89735e-05
2.86568e-05
2.81221e-05
2.76973e-05
2.72036e-05
2.66909e-05
2.61107e-05
2.54563e-05
2.47021e-05
2.37323e-05
2.2867e-05
2.1885e-05
2.08539e-05
1.98703e-05
1.88618e-05
1.78716e-05
1.69173e-05
1.58831e-05
1.48767e-05
1.38947e-05
1.29428e-05
1.20571e-05
1.12456e-05
1.05288e-05
9.95431e-06
9.47014e-06
9.09514e-06
8.86462e-06
8.72069e-06
8.66321e-06
8.6907e-06
8.78476e-06
8.92228e-06
9.0894e-06
9.27538e-06
9.45069e-06
9.62522e-06
9.78523e-06
9.9196e-06
1.00337e-05
1.01133e-05
1.01712e-05
1.02044e-05
1.02135e-05
1.0206e-05
1.01861e-05
1.01584e-05
1.01234e-05
1.00894e-05
1.00562e-05
1.00276e-05
1.00037e-05
9.98682e-06
9.97654e-06
9.97186e-06
9.9718e-06
9.97526e-06
9.9807e-06
9.98686e-06
9.99295e-06
9.99786e-06
1.00013e-05
1.00032e-05
1.00039e-05
1.00035e-05
1.00028e-05
1.00018e-05
1.0001e-05
1.00005e-05
1.00004e-05
1.00003e-05
1.00002e-05
1e-05
9.99971e-06
9.9993e-06
9.99894e-06
9.99881e-06
9.99895e-06
9.99922e-06
9.99953e-06
9.99983e-06
1.00001e-05
1.00002e-05
1.00003e-05
1.00005e-05
1.00008e-05
1.00011e-05
1.00014e-05
1.00016e-05
1.00016e-05
1.00014e-05
1.0001e-05
1.00004e-05
9.9998e-06
9.99922e-06
9.99877e-06
9.99859e-06
9.99877e-06
9.9992e-06
9.99981e-06
1.00004e-05
1.00009e-05
1.00011e-05
1.00009e-05
1.00004e-05
9.99981e-06
9.99918e-06
9.99876e-06
9.99869e-06
9.999e-06
9.99951e-06
1.00001e-05
1.00006e-05
1.00009e-05
1.00009e-05
1.00007e-05
1.00003e-05
9.99989e-06
9.99949e-06
9.99917e-06
9.99902e-06
9.99902e-06
9.99909e-06
9.99921e-06
9.9994e-06
9.99961e-06
9.99973e-06
9.99975e-06
9.99973e-06
9.99972e-06
9.99968e-06
9.99965e-06
9.99968e-06
9.9998e-06
9.99993e-06
1e-05
1.00002e-05
1.00002e-05
1.00002e-05
1.00001e-05
9.99999e-06
9.99989e-06
9.99986e-06
9.99997e-06
1.00003e-05
1.00008e-05
1.00015e-05
1.00021e-05
1.00025e-05
1.00025e-05
1.00019e-05
1.0001e-05
9.99989e-06
9.99897e-06
9.99823e-06
9.99783e-06
9.99776e-06
9.99807e-06
9.99867e-06
9.99945e-06
1.00003e-05
1.0001e-05
1.00014e-05
1.00015e-05
1.00013e-05
1.00007e-05
1.00001e-05
9.99961e-06
9.99947e-06
9.99973e-06
1.00003e-05
1.0001e-05
1.00016e-05
1.0002e-05
1.00018e-05
1.00013e-05
1.00003e-05
9.99923e-06
9.99812e-06
9.9974e-06
9.99711e-06
9.99741e-06
9.99817e-06
9.99917e-06
1.00002e-05
1.00012e-05
1.00019e-05
1.00024e-05
1.00027e-05
1.00026e-05
1.00022e-05
1.00016e-05
1.00009e-05
1.00001e-05
9.9993e-06
9.99862e-06
9.99811e-06
9.99786e-06
9.99798e-06
9.99844e-06
9.99913e-06
9.99985e-06
1.00005e-05
1.00009e-05
1.0001e-05
1.00008e-05
1.00006e-05
1.00004e-05
1.00002e-05
9.99999e-06
9.99971e-06
9.99926e-06
9.99864e-06
9.99833e-06
9.9988e-06
9.9992e-06
9.99959e-06
9.9999e-06
1.00001e-05
1.00002e-05
1.00002e-05
1.00001e-05
1e-05
1e-05
1e-05
1e-05
9.99998e-06
9.99988e-06
9.99981e-06
9.99973e-06
9.9997e-06
9.99974e-06
9.99988e-06
1e-05
1.00002e-05
1.00003e-05
1.00004e-05
1.00004e-05
1.00003e-05
1.00001e-05
9.99995e-06
9.99982e-06
9.99979e-06
9.99982e-06
9.99989e-06
9.99993e-06
9.99994e-06
9.99989e-06
9.99985e-06
9.99985e-06
9.99993e-06
1e-05
1.00002e-05
1.00002e-05
1.00001e-05
9.99989e-06
9.99978e-06
9.99973e-06
9.99974e-06
9.99978e-06
9.99986e-06
9.9999e-06
9.99992e-06
9.9999e-06
9.99988e-06
9.99985e-06
9.99983e-06
9.99984e-06
9.99988e-06
9.99988e-06
9.99985e-06
9.99982e-06
9.99984e-06
9.99988e-06
9.99993e-06
9.99995e-06
9.99992e-06
9.99981e-06
9.9997e-06
9.99963e-06
9.99966e-06
9.99972e-06
9.99981e-06
9.9999e-06
1e-05
1.00001e-05
1e-05
9.99994e-06
9.99986e-06
9.99982e-06
9.9999e-06
1e-05
1e-05
9.99994e-06
9.99976e-06
9.99967e-06
9.99966e-06
9.99973e-06
9.99981e-06
9.99993e-06
1e-05
1.00001e-05
1.00001e-05
1.00001e-05
1.00001e-05
1.00001e-05
9.99999e-06
9.99991e-06
9.99988e-06
9.99984e-06
9.9998e-06
9.99982e-06
9.99984e-06
9.99988e-06
9.99994e-06
1e-05
1.00001e-05
1.00002e-05
1.00002e-05
1.00002e-05
1.00001e-05
1.00001e-05
1e-05
9.99996e-06
9.99997e-06
9.99998e-06
9.99993e-06
9.99992e-06
9.99998e-06
1.00001e-05
1.00001e-05
1e-05
9.99992e-06
9.99983e-06
9.99977e-06
9.99983e-06
9.99996e-06
1.00001e-05
1.00002e-05
1.00003e-05
1.00002e-05
1.00001e-05
9.99995e-06
9.99985e-06
9.99985e-06
9.99993e-06
1e-05
1e-05
9.99999e-06
9.99994e-06
9.99987e-06
9.99986e-06
9.99983e-06
9.99982e-06
9.99986e-06
1.00001e-05
1.00004e-05
1.00009e-05
1.0001e-05
1.00002e-05
9.99783e-06
9.99315e-06
9.98726e-06
9.98193e-06
9.98237e-06
9.99541e-06
1.00229e-05
1.00698e-05
1.01228e-05
1.01713e-05
1.01886e-05
1.01503e-05
1.00426e-05
9.82895e-06
9.56565e-06
9.21833e-06
8.92151e-06
8.69598e-06
8.64345e-06
8.81918e-06
9.23682e-06
1.01171e-05
1.11585e-05
1.27444e-05
1.43182e-05
1.64164e-05
1.83477e-05
2.08704e-05
2.29598e-05
2.50667e-05
2.73079e-05
2.96895e-05
3.19576e-05
3.42264e-05
3.64816e-05
3.87801e-05
4.10789e-05
4.32007e-05
4.54352e-05
4.77426e-05
5.00267e-05
5.21433e-05
5.43296e-05
5.689e-05
5.89567e-05
6.08257e-05
6.2399e-05
6.41497e-05
6.57655e-05
6.71633e-05
6.85905e-05
6.99817e-05
7.13089e-05
7.24269e-05
7.35307e-05
7.46157e-05
7.54698e-05
7.63691e-05
7.70037e-05
7.77785e-05
7.85226e-05
7.9178e-05
7.9892e-05
8.06903e-05
8.13662e-05
8.21127e-05
8.25918e-05
8.3095e-05
8.34139e-05
8.35112e-05
8.34933e-05
8.34024e-05
8.30972e-05
8.2747e-05
8.2153e-05
8.15404e-05
8.08448e-05
8.01444e-05
7.94607e-05
7.88579e-05
7.82599e-05
7.76892e-05
7.70542e-05
7.63455e-05
7.54643e-05
7.445e-05
7.32223e-05
7.18716e-05
7.04127e-05
6.90031e-05
6.76229e-05
6.64182e-05
6.53221e-05
6.43011e-05
6.32608e-05
6.24041e-05
6.16806e-05
6.0848e-05
5.98386e-05
5.89726e-05
5.81947e-05
5.74917e-05
5.72359e-05
5.74097e-05
5.7806e-05
5.84233e-05
5.93503e-05
6.00421e-05
6.06477e-05
6.1189e-05
6.18307e-05
6.22133e-05
6.28396e-05
6.34448e-05
6.44048e-05
6.53477e-05
6.68318e-05
6.81647e-05
7.038e-05
7.27168e-05
7.58847e-05
7.92105e-05
8.33087e-05
8.82069e-05
9.308e-05
9.79641e-05
0.000103402
0.000108686
0.000112843
0.000115669
0.000115841
0.000112934
0.000108758
0.000104277
9.92132e-05
9.33923e-05
8.72104e-05
8.29813e-05
8.35741e-05
9.71191e-05
0.000137821
0.000220222
0.000279887
0.000331495
0.000336189
0.000342621
0.000348191
0.000387698
0.000347999
0.000343261
0.000375248
0.000367034
0.000335544
0.000340938
0.000362404
0.00037365
0.000341522
0.000384746
0.000346346
0.000331857
0.00034864
0.000320567
0.000342458
0.000370402
0.000346263
0.000355232
0.000352441
0.000379029
0.000349945
0.000347551
0.000347532
0.000333958
0.000344743
0.00034444
0.000332031
0.000327397
0.000340972
0.000334749
0.000341129
0.000331217
0.000337343
0.000346256
0.000337252
0.000325518
0.000330109
0.000330694
0.00035778
0.000361542
0.000338099
0.0003388
0.000349683
0.000347446
0.000360984
0.000342387
0.000343493
0.000328556
0.000342881
0.00033156
0.000366874
0.000352775
0.000345177
0.00034755
0.000341938
0.000332765
0.000331795
0.000319898
0.000335888
0.00033898
0.00034337
0.000349478
0.000356265
0.000335333
0.000357594
0.00039467
0.000346154
0.000311627
0.00034625
0.000366275
0.000353847
0.000318841
0.000339138
0.000342727
0.000333964
0.000333692
0.000372637
0.000338412
0.000332999
0.000330488
0.000329035
0.00032904
0.00033437
0.000347342
0.00035025
0.000342948
0.000332185
0.000323715
0.000332763
0.000341113
0.000331911
0.000324368
0.00034646
0.000340674
0.000343977
0.000341857
0.000388367
0.000338076
0.00034383
0.000346994
0.000364524
0.000382624
0.000339873
0.00034516
0.000350391
0.000357083
0.000339816
0.000367622
0.00035231
0.000342551
0.000403906
0.000380481
0.000414975
0.000360716
0.000338351
0.000343923