/*--------------------------------*- C++ -*----------------------------------*\
| =========                 |                                                 |
| \\      /  F ield         | foam-extend: Open Source CFD                    |
|  \\    /   O peration     | Version:     4.0                                |
|   \\  /    A nd           | Web:         http://www.foam-extend.org         |
|    \\/     M anipulation  |                                                 |
\*---------------------------------------------------------------------------*/
FoamFile
{
    version     2.0;
    format      ascii;
    class       volScalarField;
    location    "0.006";
    object      h;
}
// * * * * * * * * * * * * * * * * * * * * * * * * * * * * * * * * * * * * * //

dimensions      [0 1 0 0 0 0 0];

internalField   nonuniform List<scalar> 
176451
(
1.00043e-05
1.00004e-05
9.99572e-06
1.00002e-05
1e-05
1.00005e-05
9.99877e-06
9.99919e-06
1.00017e-05
9.99825e-06
9.99928e-06
1.00043e-05
1e-05
1.00006e-05
1.00014e-05
9.99819e-06
1.00023e-05
9.99678e-06
1.00018e-05
9.99987e-06
1.00007e-05
1.00005e-05
9.99928e-06
1.00004e-05
1.00014e-05
1.00003e-05
1.00023e-05
9.99937e-06
9.99814e-06
1.00005e-05
9.9978e-06
1.00007e-05
1.00009e-05
9.9977e-06
9.9988e-06
1.00025e-05
1.00013e-05
1.00023e-05
9.99944e-06
9.99954e-06
1.00003e-05
1.00046e-05
9.99841e-06
9.99913e-06
1.00009e-05
1.00002e-05
1.00004e-05
9.99868e-06
1.00019e-05
1.00017e-05
1.00081e-05
9.99803e-06
9.99955e-06
9.99989e-06
9.99873e-06
1.00008e-05
1.00008e-05
1.00003e-05
9.99803e-06
9.99838e-06
1.00019e-05
9.99963e-06
9.99672e-06
9.99946e-06
9.99835e-06
1.0005e-05
9.99933e-06
1.0001e-05
1.00032e-05
9.99926e-06
9.9993e-06
1.00003e-05
1e-05
1.00032e-05
1.00006e-05
1.00022e-05
9.99907e-06
1.00015e-05
1.00006e-05
9.99473e-06
9.99886e-06
1.00059e-05
1.00001e-05
9.99782e-06
9.99819e-06
9.99944e-06
9.9997e-06
9.99737e-06
1.00009e-05
1.00017e-05
1.00027e-05
9.99742e-06
1.00042e-05
1.00008e-05
1.00005e-05
9.99853e-06
9.99692e-06
1.00002e-05
1.00042e-05
9.99863e-06
1.00014e-05
9.99835e-06
1.00014e-05
9.9977e-06
1.00011e-05
9.99927e-06
1.00027e-05
1.00017e-05
1.00001e-05
1.00031e-05
1.00056e-05
9.9987e-06
1.00024e-05
9.99921e-06
9.99987e-06
1.00052e-05
1.00006e-05
9.9982e-06
1.00038e-05
1.00012e-05
9.99898e-06
9.99851e-06
9.99728e-06
9.99644e-06
1.00032e-05
1.00019e-05
9.99695e-06
1.00015e-05
9.99763e-06
1.0001e-05
1.00017e-05
1.00045e-05
9.99881e-06
1.0001e-05
1.0002e-05
9.99989e-06
1.0006e-05
9.99635e-06
1.00009e-05
9.99973e-06
1.00003e-05
9.99744e-06
1.00014e-05
1.00024e-05
9.99805e-06
1.00002e-05
9.99984e-06
1.00008e-05
1.00026e-05
9.99718e-06
1.00069e-05
1.00005e-05
9.99877e-06
1.00002e-05
9.99596e-06
1.00006e-05
9.99842e-06
9.99923e-06
1.00029e-05
9.99925e-06
1.00019e-05
9.99976e-06
9.99924e-06
1.00003e-05
9.99677e-06
1.00024e-05
1.00013e-05
1.00013e-05
9.9967e-06
1.00031e-05
9.99745e-06
9.99719e-06
1.00035e-05
1.00006e-05
1.00015e-05
9.99818e-06
1.00057e-05
9.99859e-06
1.00008e-05
9.99762e-06
1.00009e-05
1.00012e-05
9.9969e-06
9.99849e-06
9.99898e-06
1.00001e-05
9.99978e-06
1.00002e-05
1.00034e-05
1.00003e-05
9.99859e-06
9.9979e-06
9.99717e-06
9.9966e-06
9.99637e-06
9.99661e-06
9.99728e-06
9.99816e-06
9.99912e-06
1e-05
1.00008e-05
1.00015e-05
1.0002e-05
1.00025e-05
1.0003e-05
1.00032e-05
1.00031e-05
1.00028e-05
1.00022e-05
1.00013e-05
1.00003e-05
9.99938e-06
9.99873e-06
9.99836e-06
9.99831e-06
9.99856e-06
9.99899e-06
9.99945e-06
9.99987e-06
1.00002e-05
1.00004e-05
1.00003e-05
1.00001e-05
9.99979e-06
9.99954e-06
9.99936e-06
9.99937e-06
9.9996e-06
9.99996e-06
1.00003e-05
1.00006e-05
1.00007e-05
1.00008e-05
1.00009e-05
1.0001e-05
1.00012e-05
1.00014e-05
1.00017e-05
1.00019e-05
1.00019e-05
1.00018e-05
1.00014e-05
1.0001e-05
1.00006e-05
1.00003e-05
1.00001e-05
1.00001e-05
1e-05
9.99994e-06
9.99987e-06
9.99995e-06
1.00001e-05
1.00005e-05
1.00012e-05
1.0002e-05
1.00027e-05
1.00032e-05
1.00034e-05
1.0003e-05
1.00023e-05
1.00013e-05
1.00002e-05
9.99932e-06
9.99875e-06
9.99856e-06
9.99866e-06
9.99896e-06
9.99921e-06
9.99923e-06
9.99901e-06
9.99871e-06
9.99846e-06
9.99846e-06
9.99884e-06
9.99956e-06
1.00003e-05
1.00009e-05
1.00011e-05
1.0001e-05
1.00006e-05
1.00003e-05
1.00001e-05
1.00003e-05
1.00006e-05
1.00009e-05
1.00011e-05
1.00012e-05
1.0001e-05
1.00005e-05
9.99987e-06
9.99933e-06
9.99887e-06
9.99857e-06
9.99845e-06
9.99858e-06
9.99884e-06
9.99917e-06
9.99961e-06
1.00002e-05
1.00007e-05
1.0001e-05
1.00012e-05
1.00012e-05
1.0001e-05
1.00007e-05
1.00005e-05
1.00004e-05
1.00005e-05
1.00006e-05
1.00007e-05
1.00007e-05
1.00006e-05
1.00002e-05
9.99962e-06
9.99899e-06
9.9984e-06
9.99799e-06
9.99789e-06
9.99819e-06
9.99871e-06
9.99929e-06
9.99986e-06
1.00004e-05
1.00007e-05
1.0001e-05
1.00011e-05
1.00012e-05
1.00011e-05
1.00009e-05
1.00005e-05
1.00001e-05
9.99973e-06
9.99946e-06
9.9993e-06
9.99937e-06
9.99954e-06
9.99984e-06
1.00002e-05
1.00004e-05
1.00004e-05
1.00003e-05
1.00001e-05
9.99978e-06
9.99953e-06
9.99938e-06
9.9993e-06
9.99919e-06
9.99908e-06
9.99902e-06
9.99905e-06
9.99915e-06
9.99934e-06
9.99963e-06
9.99997e-06
1.00003e-05
1.00008e-05
1.00014e-05
1.00021e-05
1.00026e-05
1.00027e-05
1.00023e-05
1.00012e-05
9.99964e-06
9.99801e-06
9.99679e-06
9.99624e-06
9.99637e-06
9.99709e-06
9.99811e-06
9.99916e-06
9.9999e-06
1.00003e-05
1.00004e-05
1.00003e-05
1e-05
9.99996e-06
1.00001e-05
1.00005e-05
1.00009e-05
1.00014e-05
1.00017e-05
1.00019e-05
1.00019e-05
1.00018e-05
1.00016e-05
1.00014e-05
1.00011e-05
1.00007e-05
1.00003e-05
9.99992e-06
9.99949e-06
9.99915e-06
9.99896e-06
9.99892e-06
9.99894e-06
9.999e-06
9.99908e-06
9.99913e-06
9.99907e-06
9.99895e-06
9.99886e-06
9.9989e-06
9.99914e-06
9.99971e-06
1.00006e-05
1.00016e-05
1.00025e-05
1.00031e-05
1.00031e-05
1.00026e-05
1.00017e-05
1.00006e-05
9.99969e-06
9.99906e-06
9.99875e-06
9.99878e-06
9.99907e-06
9.9995e-06
9.99989e-06
1.00001e-05
1.00002e-05
1.00001e-05
9.99972e-06
9.99936e-06
9.99915e-06
9.99919e-06
9.99951e-06
1.00001e-05
1.0001e-05
1.0002e-05
1.00029e-05
1.00036e-05
1.0004e-05
1.00042e-05
1.00039e-05
1.00034e-05
1.00028e-05
1.0002e-05
1.00011e-05
1.00004e-05
9.99974e-06
9.9994e-06
9.99922e-06
9.99924e-06
9.99931e-06
9.99932e-06
9.99912e-06
9.99891e-06
9.99874e-06
9.99864e-06
9.9986e-06
9.9987e-06
9.99888e-06
9.99906e-06
9.99917e-06
9.99931e-06
9.99954e-06
9.99986e-06
1.00002e-05
1.00006e-05
1.0001e-05
1.00013e-05
1.00016e-05
1.00018e-05
1.00018e-05
1.00016e-05
1.0001e-05
1.00002e-05
9.99938e-06
9.9986e-06
9.99794e-06
9.99767e-06
9.99783e-06
9.99836e-06
9.99907e-06
9.99982e-06
1.00004e-05
1.00009e-05
1.0001e-05
1.0001e-05
1.00009e-05
1.00009e-05
1.00009e-05
1.00009e-05
1.00009e-05
1.00006e-05
1.00001e-05
9.99945e-06
9.99887e-06
9.99851e-06
9.99845e-06
9.99878e-06
9.99932e-06
9.99985e-06
1.00002e-05
1.00002e-05
9.99998e-06
9.99951e-06
9.9989e-06
9.99837e-06
9.99806e-06
9.99804e-06
9.99836e-06
9.99895e-06
9.99965e-06
1.00003e-05
1.00009e-05
1.00012e-05
1.00014e-05
1.00014e-05
1.00012e-05
1.00011e-05
1.0001e-05
1.00008e-05
1.00005e-05
1.00002e-05
9.9999e-06
9.99959e-06
9.99929e-06
9.9992e-06
9.99932e-06
9.99961e-06
1e-05
1.00006e-05
1.00011e-05
1.00016e-05
1.00018e-05
1.00018e-05
1.00014e-05
1.00008e-05
1e-05
9.99945e-06
9.99918e-06
9.99931e-06
9.99972e-06
1.00002e-05
1.00005e-05
1.00006e-05
1.00006e-05
1.00004e-05
1.00002e-05
1.00001e-05
1e-05
9.99999e-06
9.99999e-06
1.00001e-05
1.00004e-05
1.0001e-05
1.00017e-05
1.00024e-05
1.00029e-05
1.0003e-05
1.00024e-05
1.00013e-05
9.99995e-06
9.99851e-06
9.99726e-06
9.99643e-06
9.99601e-06
9.99591e-06
9.99611e-06
9.99661e-06
9.99744e-06
9.99854e-06
9.99988e-06
1.00012e-05
1.00023e-05
1.00028e-05
1.00026e-05
1.00018e-05
1.00007e-05
9.99957e-06
9.99881e-06
9.9986e-06
9.99889e-06
9.99945e-06
1e-05
1.00005e-05
1.00006e-05
1.00003e-05
9.99971e-06
9.99895e-06
9.9982e-06
9.99759e-06
9.9973e-06
9.99744e-06
9.99795e-06
9.99863e-06
9.99935e-06
9.99993e-06
1.00003e-05
1.00004e-05
1.00003e-05
1.00002e-05
1.00002e-05
1.00001e-05
1.00001e-05
1.00002e-05
1.00002e-05
1.00001e-05
1e-05
9.99994e-06
9.99988e-06
9.99984e-06
9.99983e-06
9.9999e-06
1e-05
1.00001e-05
1.00002e-05
1.00002e-05
1.00003e-05
1.00004e-05
1.00004e-05
1.00005e-05
1.00006e-05
1.00007e-05
1.00006e-05
1.00004e-05
9.99999e-06
9.99946e-06
9.9989e-06
9.99846e-06
9.99825e-06
9.99829e-06
9.99865e-06
9.99928e-06
1.00001e-05
1.00009e-05
1.00015e-05
1.00019e-05
1.00018e-05
1.00013e-05
1.00005e-05
9.99969e-06
9.99903e-06
9.99863e-06
9.99871e-06
9.99921e-06
1e-05
1.00008e-05
1.00014e-05
1.00016e-05
1.00013e-05
1.00007e-05
9.99998e-06
9.99946e-06
9.99938e-06
9.99965e-06
1.00002e-05
1.00008e-05
1.00012e-05
1.00012e-05
1.0001e-05
1.00005e-05
1e-05
9.99959e-06
9.99935e-06
9.99929e-06
9.99934e-06
9.99935e-06
9.9994e-06
9.99948e-06
9.99964e-06
9.99986e-06
1.00002e-05
1.00005e-05
1.00009e-05
1.00011e-05
1.00013e-05
1.00013e-05
1.00013e-05
1.00011e-05
1.00009e-05
1.00006e-05
1.00004e-05
1.00002e-05
1.00001e-05
1.00001e-05
1.00002e-05
1.00003e-05
1.00003e-05
1.00001e-05
9.9999e-06
9.99962e-06
9.99949e-06
9.99951e-06
9.99963e-06
9.99979e-06
9.99994e-06
9.99998e-06
9.99989e-06
9.99966e-06
9.9995e-06
9.99944e-06
9.99948e-06
9.99957e-06
9.99964e-06
9.99971e-06
9.99975e-06
9.99983e-06
1e-05
1.00003e-05
1.00008e-05
1.00011e-05
1.00013e-05
1.00012e-05
1.00009e-05
1.00006e-05
1.00003e-05
1.00001e-05
1.00002e-05
1.00004e-05
1.00008e-05
1.0001e-05
1.00011e-05
1.0001e-05
1.00008e-05
1.00005e-05
1.00002e-05
9.9999e-06
9.99967e-06
9.9994e-06
9.999e-06
9.99854e-06
9.99817e-06
9.99792e-06
9.998e-06
9.99835e-06
9.99893e-06
9.99963e-06
1.00003e-05
1.00007e-05
1.00008e-05
1.00006e-05
1.00002e-05
9.99973e-06
9.99939e-06
9.99923e-06
9.99932e-06
9.99961e-06
9.99994e-06
1.00003e-05
1.00005e-05
1.00007e-05
1.00008e-05
1.00007e-05
1.00007e-05
1.00006e-05
1.00006e-05
1.00004e-05
1.00003e-05
1.00001e-05
9.99987e-06
9.99961e-06
9.99943e-06
9.99933e-06
9.99928e-06
9.99929e-06
9.99934e-06
9.9994e-06
9.99941e-06
9.99942e-06
9.9995e-06
9.99966e-06
9.99981e-06
9.99997e-06
1.00001e-05
1.00002e-05
1.00002e-05
1e-05
9.99978e-06
9.99947e-06
9.99911e-06
9.99882e-06
9.99873e-06
9.99888e-06
9.9992e-06
9.99965e-06
1.00001e-05
1.00005e-05
1.00007e-05
1.00007e-05
1.00004e-05
1.00001e-05
9.99967e-06
9.99933e-06
9.99914e-06
9.99911e-06
9.99912e-06
9.99917e-06
9.99925e-06
9.99938e-06
9.99953e-06
9.99978e-06
1.00001e-05
1.00006e-05
1.0001e-05
1.00012e-05
1.00012e-05
1.00012e-05
1.0001e-05
1.00007e-05
1.00006e-05
1.00005e-05
1.00004e-05
1.00004e-05
1.00004e-05
1.00004e-05
1.00005e-05
1.00006e-05
1.00007e-05
1.00006e-05
1.00004e-05
1e-05
9.99962e-06
9.99927e-06
9.99906e-06
9.99904e-06
9.99922e-06
9.9995e-06
9.99973e-06
9.99988e-06
9.99994e-06
9.99985e-06
9.99968e-06
9.99962e-06
9.99973e-06
9.99995e-06
1.00002e-05
1.00004e-05
1.00006e-05
1.00005e-05
1.00003e-05
1e-05
9.99967e-06
9.99948e-06
9.99936e-06
9.99944e-06
9.99967e-06
9.99995e-06
1.00002e-05
1.00004e-05
1.00007e-05
1.00009e-05
1.00011e-05
1.00012e-05
1.00011e-05
1.0001e-05
1.00006e-05
1.00002e-05
9.99985e-06
9.99957e-06
9.9993e-06
9.99917e-06
9.99917e-06
9.99928e-06
9.99941e-06
9.99961e-06
9.99986e-06
1.00001e-05
1.00002e-05
1.00002e-05
1.00003e-05
1.00002e-05
1.00001e-05
9.99998e-06
9.99986e-06
9.99989e-06
9.99997e-06
1.00001e-05
1.00003e-05
1.00004e-05
1.00003e-05
1.00001e-05
9.99988e-06
9.99958e-06
9.99932e-06
9.99914e-06
9.9991e-06
9.99916e-06
9.99928e-06
9.99953e-06
9.99988e-06
1.00003e-05
1.00006e-05
1.00009e-05
1.0001e-05
1.0001e-05
1.00008e-05
1.00005e-05
1.00003e-05
1e-05
9.99981e-06
9.99963e-06
9.99954e-06
9.9995e-06
9.99953e-06
9.99964e-06
9.99982e-06
1e-05
1.00002e-05
1.00004e-05
1.00004e-05
1.00003e-05
1.00001e-05
9.9999e-06
9.99968e-06
9.9995e-06
9.99933e-06
9.99925e-06
9.99928e-06
9.99938e-06
9.99946e-06
9.9996e-06
9.99977e-06
9.99998e-06
1.00002e-05
1.00004e-05
1.00006e-05
1.00007e-05
1.00008e-05
1.00007e-05
1.00005e-05
1.00003e-05
1.00001e-05
9.99978e-06
9.99955e-06
9.99942e-06
9.99941e-06
9.99944e-06
9.99953e-06
9.9997e-06
9.99991e-06
1.00001e-05
1.00002e-05
1.00003e-05
1.00004e-05
1.00003e-05
1.00001e-05
9.99998e-06
9.99986e-06
9.99975e-06
9.99969e-06
9.99968e-06
9.99969e-06
9.99966e-06
9.99964e-06
9.99968e-06
9.99981e-06
9.99997e-06
1.00002e-05
1.00003e-05
1.00005e-05
1.00005e-05
1.00004e-05
1.00002e-05
1.00001e-05
9.99999e-06
9.99995e-06
9.99998e-06
1.00001e-05
1.00002e-05
1.00002e-05
1.00003e-05
1.00003e-05
1.00003e-05
1.00001e-05
9.99999e-06
9.9998e-06
9.99956e-06
9.99936e-06
9.99927e-06
9.99931e-06
9.9994e-06
9.99951e-06
9.99964e-06
9.99974e-06
9.99977e-06
9.99977e-06
9.9998e-06
9.99986e-06
9.99987e-06
9.99984e-06
9.99978e-06
9.99971e-06
9.9996e-06
9.99954e-06
9.99961e-06
9.99982e-06
1.00001e-05
1.00003e-05
1.00005e-05
1.00005e-05
1.00004e-05
1.00001e-05
9.99991e-06
9.99977e-06
9.99971e-06
9.9998e-06
1e-05
1.00003e-05
1.00004e-05
1.00005e-05
1.00006e-05
1.00005e-05
1.00004e-05
1.00003e-05
1.00001e-05
9.99996e-06
9.99976e-06
9.99958e-06
9.99952e-06
9.9996e-06
9.99975e-06
9.99996e-06
1.00002e-05
1.00003e-05
1.00003e-05
1.00002e-05
9.99992e-06
9.99964e-06
9.99935e-06
9.99923e-06
9.99929e-06
9.99954e-06
9.99985e-06
1.00002e-05
1.00005e-05
1.00006e-05
1.00006e-05
1.00005e-05
1.00003e-05
1.00001e-05
9.99995e-06
9.99993e-06
1e-05
1.00001e-05
1.00002e-05
1.00002e-05
1.00001e-05
9.99993e-06
9.99972e-06
9.99962e-06
9.99959e-06
9.99969e-06
9.99984e-06
1.00001e-05
1.00003e-05
1.00005e-05
1.00006e-05
1.00007e-05
1.00007e-05
1.00006e-05
1.00005e-05
1.00004e-05
1.00003e-05
1.00002e-05
1e-05
9.99998e-06
9.99992e-06
9.9999e-06
9.99985e-06
9.99987e-06
9.99994e-06
1e-05
1.00001e-05
1.00001e-05
1.00001e-05
1.00001e-05
9.99997e-06
9.99989e-06
9.9998e-06
9.99982e-06
9.99986e-06
9.99996e-06
1e-05
1e-05
9.99994e-06
9.9999e-06
9.99984e-06
9.99984e-06
9.99987e-06
9.99998e-06
1.00001e-05
1.00002e-05
1.00003e-05
1.00004e-05
1.00003e-05
1.00002e-05
1.00001e-05
1e-05
9.99993e-06
9.99986e-06
9.99978e-06
9.99976e-06
9.99977e-06
9.99985e-06
9.99993e-06
1.00001e-05
1.00002e-05
1.00003e-05
1.00003e-05
1.00003e-05
1.00002e-05
1.00001e-05
1e-05
9.99999e-06
9.99995e-06
9.9999e-06
9.9998e-06
9.99973e-06
9.99966e-06
9.99965e-06
9.99968e-06
9.99982e-06
9.99997e-06
1.00001e-05
1.00002e-05
1.00003e-05
1.00003e-05
1.00003e-05
1.00003e-05
1.00003e-05
1.00002e-05
1.00002e-05
1.00001e-05
1.00001e-05
1e-05
9.99993e-06
9.99986e-06
9.99977e-06
9.99967e-06
9.99961e-06
9.99957e-06
9.99951e-06
9.99949e-06
9.99957e-06
9.99975e-06
9.99996e-06
1.00002e-05
1.00004e-05
1.00006e-05
1.00007e-05
1.00006e-05
1.00006e-05
1.00005e-05
1.00004e-05
1.00002e-05
1.00001e-05
1e-05
9.99993e-06
9.99984e-06
9.99979e-06
9.9998e-06
9.99981e-06
9.99986e-06
9.99995e-06
1.00001e-05
1.00001e-05
1.00001e-05
1.00001e-05
1.00001e-05
1.00002e-05
1.00002e-05
1.00002e-05
1.00002e-05
1.00001e-05
1e-05
9.99994e-06
9.99989e-06
9.99986e-06
9.99989e-06
9.99998e-06
1.00001e-05
1.00002e-05
1.00002e-05
1.00003e-05
1.00002e-05
1.00001e-05
1.00001e-05
1e-05
1.00001e-05
1.00001e-05
1.00002e-05
1.00002e-05
1.00002e-05
1.00001e-05
1e-05
9.99996e-06
9.99991e-06
9.99983e-06
9.99979e-06
9.99986e-06
1e-05
1.00002e-05
1.00003e-05
1.00003e-05
1.00003e-05
1.00002e-05
1e-05
9.99997e-06
1e-05
1.00001e-05
1.00002e-05
1.00003e-05
1.00004e-05
1.00004e-05
1.00003e-05
1.00003e-05
1.00002e-05
1.00002e-05
1.00001e-05
1e-05
1e-05
9.99998e-06
9.99995e-06
9.99994e-06
1e-05
1e-05
1.00001e-05
1.00001e-05
1.00002e-05
1.00002e-05
1.00002e-05
1.00001e-05
1.00001e-05
9.99999e-06
9.99991e-06
9.99987e-06
9.99989e-06
9.99987e-06
9.99986e-06
9.99987e-06
9.99992e-06
9.99991e-06
9.99991e-06
9.99993e-06
1e-05
1.00001e-05
1.00002e-05
1.00003e-05
1.00004e-05
1.00004e-05
1.00004e-05
1.00003e-05
1.00002e-05
1e-05
9.99996e-06
9.99989e-06
9.99991e-06
9.99991e-06
9.99993e-06
1e-05
1.00001e-05
1.00002e-05
1.00002e-05
1.00003e-05
1.00003e-05
1.00003e-05
1.00002e-05
1.00001e-05
1.00001e-05
1e-05
1e-05
9.99999e-06
1e-05
9.99998e-06
9.99995e-06
9.99994e-06
1e-05
1.00001e-05
1.00001e-05
1.00002e-05
1.00003e-05
1.00003e-05
1.00003e-05
1.00003e-05
1.00003e-05
1.00003e-05
1.00002e-05
1.00001e-05
1.00001e-05
9.99999e-06
9.99997e-06
9.99995e-06
9.99999e-06
9.99999e-06
1e-05
9.99998e-06
9.99997e-06
9.99992e-06
9.99993e-06
9.99995e-06
9.99997e-06
9.99995e-06
9.99995e-06
9.99996e-06
1e-05
9.99997e-06
9.99996e-06
9.99997e-06
1e-05
9.99999e-06
9.99999e-06
9.99997e-06
9.99997e-06
9.99995e-06
9.99997e-06
1e-05
1.00001e-05
1.00001e-05
1.00001e-05
1.00002e-05
1.00002e-05
1.00002e-05
1.00001e-05
9.99999e-06
9.99987e-06
9.99977e-06
9.99968e-06
9.99965e-06
9.99971e-06
9.99986e-06
9.99998e-06
1.00001e-05
1.00001e-05
1.00001e-05
1.00001e-05
1e-05
1e-05
9.99999e-06
9.99994e-06
9.99987e-06
9.99983e-06
9.99982e-06
9.99978e-06
9.99974e-06
9.99976e-06
9.99983e-06
9.99988e-06
9.99992e-06
9.99998e-06
1e-05
1e-05
9.99998e-06
9.99996e-06
9.99996e-06
9.99995e-06
9.99992e-06
9.99992e-06
9.99994e-06
9.99992e-06
9.99989e-06
9.99988e-06
9.9999e-06
9.99989e-06
9.99989e-06
9.99991e-06
9.99998e-06
1e-05
1e-05
1.00001e-05
1.00001e-05
1.00001e-05
1e-05
9.99999e-06
9.99997e-06
9.99994e-06
9.99992e-06
9.99995e-06
1e-05
9.99998e-06
9.99996e-06
9.99998e-06
1e-05
1e-05
9.99997e-06
9.99993e-06
9.99992e-06
9.99989e-06
9.99987e-06
9.99988e-06
9.9999e-06
9.99988e-06
9.99984e-06
9.99982e-06
9.99984e-06
9.99985e-06
9.99987e-06
9.99993e-06
1e-05
1e-05
1e-05
1e-05
1e-05
1e-05
9.99995e-06
9.99992e-06
9.99993e-06
9.99991e-06
9.99989e-06
9.9999e-06
9.99994e-06
9.99995e-06
9.99995e-06
9.99996e-06
1e-05
1e-05
1e-05
1e-05
1e-05
1e-05
1e-05
9.99996e-06
9.99996e-06
9.99993e-06
9.99987e-06
9.9998e-06
9.99981e-06
9.99985e-06
9.99993e-06
1e-05
1.00001e-05
1.00001e-05
1.00001e-05
1e-05
1e-05
9.99995e-06
9.99991e-06
9.99986e-06
9.99991e-06
9.99995e-06
1e-05
1.00001e-05
1.00001e-05
1.00001e-05
1e-05
9.99997e-06
9.99995e-06
9.99992e-06
9.99991e-06
9.99989e-06
9.99992e-06
9.99993e-06
9.99996e-06
9.99996e-06
1e-05
9.99997e-06
9.99994e-06
9.99989e-06
9.99991e-06
9.99992e-06
9.99997e-06
1e-05
1.00001e-05
1.00001e-05
1.00001e-05
1.00001e-05
1.00001e-05
1e-05
1.00001e-05
1e-05
1e-05
1e-05
1e-05
1e-05
1e-05
1e-05
1e-05
9.99997e-06
9.99995e-06
9.99992e-06
9.99995e-06
9.99998e-06
1.00001e-05
1.00001e-05
1e-05
9.99996e-06
9.99991e-06
9.99984e-06
9.99984e-06
9.99987e-06
9.99994e-06
1e-05
1.00001e-05
1.00001e-05
1.00001e-05
1e-05
1e-05
1e-05
9.99999e-06
9.99995e-06
9.99988e-06
9.9998e-06
9.99976e-06
9.9997e-06
9.99973e-06
9.99983e-06
9.99995e-06
1e-05
1.00001e-05
1.00001e-05
1.00001e-05
1.00001e-05
9.99994e-06
9.99984e-06
9.99981e-06
9.99986e-06
9.99994e-06
9.99997e-06
1e-05
1.00001e-05
1.00001e-05
1e-05
1e-05
9.99999e-06
9.99993e-06
9.99987e-06
9.99987e-06
9.99992e-06
9.99994e-06
9.99994e-06
9.99996e-06
9.99999e-06
9.99999e-06
9.99995e-06
9.99993e-06
9.99992e-06
9.99988e-06
9.99984e-06
9.99984e-06
9.99991e-06
9.99996e-06
1e-05
1e-05
1.00001e-05
1e-05
9.99999e-06
9.99995e-06
9.99995e-06
9.99992e-06
9.99989e-06
9.9999e-06
9.99994e-06
9.99994e-06
9.99991e-06
9.99988e-06
9.99986e-06
9.99981e-06
9.99978e-06
9.99983e-06
1e-05
1.00002e-05
1.00005e-05
1.00008e-05
1.00011e-05
1.00014e-05
1.00015e-05
1.00017e-05
1.00019e-05
1.00021e-05
1.00023e-05
1.00025e-05
1.00023e-05
1.00013e-05
9.99917e-06
9.99562e-06
9.99025e-06
9.98398e-06
9.97794e-06
9.97377e-06
9.97388e-06
9.98058e-06
9.99596e-06
1.00209e-05
1.00573e-05
1.00991e-05
1.01408e-05
1.01747e-05
1.01924e-05
1.01846e-05
1.0146e-05
1.00763e-05
9.96742e-06
9.8354e-06
9.69111e-06
9.54212e-06
9.3826e-06
9.23265e-06
9.09435e-06
8.95752e-06
8.81379e-06
8.68693e-06
8.60471e-06
8.61883e-06
8.8415e-06
9.32631e-06
1.01213e-05
1.12279e-05
1.2731e-05
1.44303e-05
1.62436e-05
1.81069e-05
2.00915e-05
2.20002e-05
2.37573e-05
2.55962e-05
2.72213e-05
2.87857e-05
3.01415e-05
3.14522e-05
3.24774e-05
3.35537e-05
3.44746e-05
3.53835e-05
3.61292e-05
3.6904e-05
3.75283e-05
3.80943e-05
3.84984e-05
3.88066e-05
3.90416e-05
3.9145e-05
3.91326e-05
3.90385e-05
3.88935e-05
3.86311e-05
3.82942e-05
3.78713e-05
3.74332e-05
3.6906e-05
3.63685e-05
3.57863e-05
3.52088e-05
3.44913e-05
3.36855e-05
3.26887e-05
3.1626e-05
3.04079e-05
2.9218e-05
2.79709e-05
2.67959e-05
2.5541e-05
2.43177e-05
2.29537e-05
2.15227e-05
1.98508e-05
1.81509e-05
1.62794e-05
1.44653e-05
1.25336e-05
1.08655e-05
1.03055e-05
1.25753e-05
1.83169e-05
2.55794e-05
3.22749e-05
3.62212e-05
3.53752e-05
2.94036e-05
2.32093e-05
2.30199e-05
3.98492e-05
5.42613e-05
6.33599e-05
6.83863e-05
7.11768e-05
7.29657e-05
7.40567e-05
7.41558e-05
7.35463e-05
7.263e-05
7.17208e-05
7.0611e-05
6.94755e-05
6.83451e-05
6.7469e-05
6.68616e-05
6.65847e-05
6.64533e-05
6.65405e-05
6.68628e-05
6.72888e-05
6.77953e-05
6.83086e-05
6.87532e-05
6.91906e-05
6.94444e-05
6.96351e-05
6.96887e-05
6.96975e-05
6.96384e-05
6.94403e-05
6.93161e-05
6.90908e-05
6.89252e-05
6.87781e-05
6.87023e-05
6.86086e-05
6.85457e-05
6.85115e-05
6.85177e-05
6.85439e-05
6.86353e-05
6.87049e-05
6.87481e-05
6.8796e-05
6.88269e-05
6.88049e-05
6.87727e-05
6.87485e-05
6.8709e-05
6.86417e-05
6.85862e-05
6.85594e-05
6.85355e-05
6.84901e-05
6.84619e-05
6.84682e-05
6.84826e-05
6.84744e-05
6.84824e-05
6.85203e-05
6.85587e-05
6.85664e-05
6.85823e-05
6.86216e-05
6.86544e-05
6.86499e-05
6.86505e-05
6.86732e-05
6.8689e-05
6.86688e-05
6.86563e-05
6.86677e-05
6.86745e-05
6.86476e-05
6.86279e-05
6.86312e-05
6.86293e-05
6.85918e-05
6.85604e-05
6.85507e-05
6.85383e-05
6.84949e-05
6.84674e-05
6.84774e-05
6.85003e-05
6.84971e-05
6.8522e-05
6.85917e-05
6.86595e-05
6.86652e-05
6.86705e-05
6.86898e-05
6.86876e-05
6.86346e-05
6.85731e-05
6.85221e-05
6.84678e-05
6.83955e-05
6.83576e-05
6.83828e-05
6.84544e-05
6.8541e-05
6.86761e-05
6.88584e-05
6.90215e-05
6.91031e-05
6.91204e-05
6.90681e-05
6.89122e-05
6.86453e-05
6.8339e-05
6.80546e-05
6.78612e-05
6.78018e-05
6.79477e-05
6.82983e-05
6.87583e-05
6.9208e-05
6.95849e-05
6.9782e-05
6.96679e-05
6.92425e-05
6.86196e-05
6.78787e-05
6.72463e-05
6.70711e-05
6.76372e-05
6.89251e-05
7.07226e-05
7.28545e-05
7.48403e-05
7.56231e-05
7.39497e-05
6.89226e-05
5.96815e-05
4.49667e-05
2.83302e-05
2.42288e-05
2.51829e-05
2.69363e-05
2.91009e-05
3.02534e-05
2.91016e-05
2.6739e-05
2.54709e-05
2.44007e-05
2.31339e-05
2.23897e-05
2.24686e-05
2.29054e-05
2.35273e-05
2.42794e-05
2.53772e-05
2.65444e-05
2.75932e-05
2.83616e-05
2.90282e-05
2.96575e-05
3.02084e-05
3.05024e-05
3.05019e-05
3.02318e-05
2.9707e-05
2.90592e-05
2.82223e-05
2.73172e-05
2.63355e-05
2.54371e-05
2.45371e-05
2.37897e-05
2.31694e-05
2.28205e-05
2.26597e-05
2.27196e-05
2.29991e-05
2.34434e-05
2.39572e-05
2.44576e-05
2.496e-05
2.54234e-05
2.57716e-05
2.59943e-05
2.61411e-05
2.62747e-05
2.63243e-05
2.62722e-05
2.63791e-05
2.61939e-05
2.60401e-05
2.57272e-05
2.55133e-05
2.50495e-05
2.46962e-05
2.42806e-05
2.38656e-05
2.3405e-05
2.2901e-05
2.23136e-05
2.15168e-05
2.08171e-05
1.99714e-05
1.90287e-05
1.80813e-05
1.70622e-05
1.60461e-05
1.50788e-05
1.40556e-05
1.31002e-05
1.21965e-05
1.13425e-05
1.05643e-05
9.88546e-06
9.33716e-06
8.9646e-06
8.72561e-06
8.64051e-06
8.68882e-06
8.82599e-06
9.00775e-06
9.2188e-06
9.43155e-06
9.62202e-06
9.7962e-06
9.94326e-06
1.00484e-05
1.01266e-05
1.0177e-05
1.01974e-05
1.01945e-05
1.01753e-05
1.01454e-05
1.01095e-05
1.0075e-05
1.00421e-05
1.00142e-05
9.99455e-06
9.98072e-06
9.97468e-06
9.97387e-06
9.97678e-06
9.98214e-06
9.98833e-06
9.99411e-06
9.99877e-06
1.0002e-05
1.00035e-05
1.00037e-05
1.0003e-05
1.00019e-05
1.00008e-05
1.00001e-05
9.99962e-06
9.99939e-06
9.99939e-06
9.99952e-06
9.99967e-06
9.99983e-06
1e-05
1.00003e-05
1.00004e-05
1.00005e-05
1.00005e-05
1.00004e-05
1.00002e-05
1e-05
9.99997e-06
1e-05
1.00001e-05
1.00001e-05
1.00001e-05
1.00001e-05
1.00001e-05
1e-05
1.00001e-05
1.00004e-05
1.00006e-05
1.00008e-05
1.00008e-05
1.00008e-05
1.00007e-05
1.00004e-05
1.00002e-05
1e-05
9.99987e-06
9.99979e-06
9.99979e-06
9.99991e-06
1.00001e-05
1.00002e-05
1.00003e-05
1.00003e-05
1.00002e-05
9.99998e-06
9.9997e-06
9.99942e-06
9.99918e-06
9.99906e-06
9.99914e-06
9.99943e-06
9.99977e-06
1.00001e-05
1.00003e-05
1.00005e-05
1.00005e-05
1.00004e-05
1.00002e-05
1.00001e-05
1.00001e-05
1e-05
1e-05
1.00001e-05
1.00001e-05
1.00001e-05
1.00001e-05
1.00001e-05
1.00001e-05
1e-05
1e-05
1.00001e-05
1.00001e-05
1.00002e-05
1.00002e-05
1.00002e-05
1.00001e-05
9.99997e-06
9.99981e-06
9.9997e-06
9.99961e-06
9.99954e-06
9.99953e-06
9.99958e-06
9.99966e-06
9.99979e-06
1e-05
1.00004e-05
1.00008e-05
1.00013e-05
1.00017e-05
1.00018e-05
1.00014e-05
1.00009e-05
1.00002e-05
9.99964e-06
9.99922e-06
9.99901e-06
9.99897e-06
9.99916e-06
9.99947e-06
9.99985e-06
1.00002e-05
1.00005e-05
1.00007e-05
1.00008e-05
1.00007e-05
1.00005e-05
1.00002e-05
1e-05
1e-05
1.00002e-05
1.00005e-05
1.00007e-05
1.00009e-05
1.00009e-05
1.00007e-05
1.00004e-05
9.99985e-06
9.9994e-06
9.99902e-06
9.99888e-06
9.99899e-06
9.99937e-06
9.99989e-06
1.00004e-05
1.00007e-05
1.00009e-05
1.00009e-05
1.00007e-05
1.00005e-05
1.00002e-05
9.99983e-06
9.9995e-06
9.99921e-06
9.99906e-06
9.99896e-06
9.99897e-06
9.99907e-06
9.99922e-06
9.99947e-06
9.99979e-06
1.00001e-05
1.00003e-05
1.00004e-05
1.00003e-05
1.00001e-05
9.99998e-06
9.99993e-06
1.00001e-05
1.00003e-05
1.00006e-05
1.00008e-05
1.00008e-05
1.00006e-05
1.00004e-05
1.00004e-05
1.00002e-05
1.00001e-05
1e-05
1e-05
9.99998e-06
9.99995e-06
9.99991e-06
9.99989e-06
9.99997e-06
9.99999e-06
1e-05
9.99995e-06
9.99989e-06
9.99986e-06
9.99981e-06
9.99979e-06
9.99981e-06
9.99988e-06
9.99996e-06
1e-05
1.00001e-05
1.00001e-05
1.00001e-05
1e-05
9.9999e-06
9.99982e-06
9.99978e-06
9.99983e-06
9.99993e-06
1.00001e-05
1.00001e-05
1.00001e-05
1e-05
9.99995e-06
9.99988e-06
9.9999e-06
9.99997e-06
1.00001e-05
1.00001e-05
9.99997e-06
9.99981e-06
9.99972e-06
9.99969e-06
9.99971e-06
9.99976e-06
9.99983e-06
9.99986e-06
9.99987e-06
9.99984e-06
9.99983e-06
9.99982e-06
9.99983e-06
9.99986e-06
9.99992e-06
9.99995e-06
9.99993e-06
9.9999e-06
9.99991e-06
9.99994e-06
9.99998e-06
9.99999e-06
9.99996e-06
9.99984e-06
9.99972e-06
9.99965e-06
9.99966e-06
9.99971e-06
9.99978e-06
9.99986e-06
9.99996e-06
1e-05
1e-05
9.99993e-06
9.99987e-06
9.99985e-06
9.99995e-06
1.00001e-05
1.00001e-05
1e-05
9.99982e-06
9.99972e-06
9.99971e-06
9.99978e-06
9.99987e-06
9.99998e-06
1.00001e-05
1.00001e-05
1.00001e-05
1.00001e-05
1.00001e-05
1.00001e-05
9.99998e-06
9.9999e-06
9.99987e-06
9.99983e-06
9.99979e-06
9.9998e-06
9.99982e-06
9.99986e-06
9.99992e-06
1e-05
1.00001e-05
1.00002e-05
1.00002e-05
1.00002e-05
1.00002e-05
1.00001e-05
1e-05
9.99998e-06
9.99999e-06
1e-05
9.99995e-06
9.99994e-06
1e-05
1.00001e-05
1.00001e-05
1.00001e-05
9.99994e-06
9.99984e-06
9.99976e-06
9.99982e-06
9.99993e-06
1.00001e-05
1.00002e-05
1.00002e-05
1.00002e-05
1.00001e-05
9.99997e-06
9.99989e-06
9.99991e-06
1e-05
1.00001e-05
1.00001e-05
1e-05
1e-05
9.99994e-06
9.99995e-06
9.99994e-06
9.99993e-06
9.99992e-06
9.99994e-06
9.99997e-06
9.99999e-06
9.99997e-06
9.99998e-06
9.99999e-06
1e-05
1.00001e-05
1.00004e-05
1.00008e-05
1.00009e-05
9.99991e-06
9.99666e-06
9.99104e-06
9.98458e-06
9.98318e-06
9.99604e-06
1.00287e-05
1.00843e-05
1.01383e-05
1.01664e-05
1.01237e-05
9.96318e-06
9.71055e-06
9.33301e-06
8.98061e-06
8.72508e-06
8.72431e-06
9.11708e-06
9.92162e-06
1.14197e-05
1.31543e-05
1.56194e-05
1.79031e-05
2.03256e-05
2.29607e-05
2.57958e-05
2.85877e-05
3.14328e-05
3.43129e-05
3.72526e-05
4.01759e-05
4.28122e-05
4.54685e-05
4.80759e-05
5.05253e-05
5.26921e-05
5.48862e-05
5.74989e-05
5.9597e-05
6.15359e-05
6.32064e-05
6.51083e-05
6.68629e-05
6.83453e-05
6.97802e-05
7.10716e-05
7.21824e-05
7.30135e-05
7.37873e-05
7.45683e-05
7.52195e-05
7.60151e-05
7.66554e-05
7.74373e-05
7.81569e-05
7.87182e-05
7.91817e-05
7.95338e-05
7.95885e-05
7.95082e-05
7.90546e-05
7.85241e-05
7.78585e-05
7.71959e-05
7.65575e-05
7.59375e-05
7.5148e-05
7.42414e-05
7.31327e-05
7.20871e-05
7.12266e-05
7.06427e-05
7.00482e-05
6.92471e-05
6.81627e-05
6.69779e-05
6.57679e-05
6.46438e-05
6.34695e-05
6.22701e-05
6.12481e-05
6.06583e-05
6.0172e-05
5.9537e-05
5.91152e-05
5.87467e-05
5.81354e-05
5.7447e-05
5.70229e-05
5.66652e-05
5.66301e-05
5.70149e-05
5.79655e-05
5.90469e-05
6.05148e-05
6.21001e-05
6.39765e-05
6.57203e-05
6.78145e-05
6.99076e-05
7.22046e-05
7.43289e-05
7.6868e-05
7.90383e-05
8.13172e-05
8.34589e-05
8.58581e-05
8.7788e-05
9.04442e-05
9.43232e-05
9.86919e-05
0.000103412
0.00010806
0.000112096
0.0001146
0.00011625
0.000115086
0.000109494
0.000101899
9.27198e-05
8.52601e-05
8.39282e-05
0.00010014
0.00016613
0.000244188
0.000280212
0.00033713
0.000353713
0.00035585
0.000340022
0.000344662
0.000338739
0.000341807
0.000339308
0.000339118
0.000356782
0.000372327
0.000366349
0.000353209
0.000345341
0.000348163
0.00037393
0.000358797
0.000384938
0.000348884
0.000308139
0.000348667
0.000334503
0.000343723
0.000341196
0.000383655
0.000352522
0.000343673
0.000354243
0.000333956
0.000361294
0.000362161
0.000317299
0.000326451
0.000329259
0.000358966
0.000354983
0.000357368
0.000346059
0.00034686
0.000314776
0.000343392
0.000338223
0.000329237
0.00034809
0.000339089
0.00034096
0.00034241
0.000345237
0.000350597
0.000336508
0.000346136
0.000364693
0.000360839
0.000377519
0.000346246
0.000344204
0.000349118
0.000340799
0.000346927
0.000359495
0.000361966
0.000341359
0.000341623
0.000365142
0.000334828
0.000327023
0.000349116
0.000341842
0.000334831
0.000315546
0.000365627
0.0003235
0.000333327
0.000353105
0.000379726
0.00034495
0.000353728
0.000351079
0.000352503
0.000332989
0.000374801
0.000360316
0.000342878
0.000351654
0.000359515
0.00036839
0.000342191
0.000342331
0.000350983
0.000358085
0.000345934
0.000317195
0.000370513
0.000341374
0.00033525
0.000332049
0.000360738
0.000341023
0.000326003
0.000328802
0.000350268
0.00034941
0.000337744
0.000326914
0.000339412
0.000352979
0.000372818
0.000363801
0.000355149
0.000346727
0.000343616
0.000316223
0.000364464
0.00036495
0.000333674
0.000346399
0.000359409
0.00033051
0.000359227
0.0004009
0.000353813
0.00037097
0.000314534
0.000302808
0.000309649
0.000317627
0.000313606
0.000310224
0.000295239
0.000297309
0.000309912
0.000308624
0.000290985
0.000240103
0.000147048
7.01799e-05
4.98291e-05
4.85686e-05
5.73403e-05
7.13352e-05
8.36086e-05
9.59683e-05
0.000103651
0.000109006
0.000111133
0.000111497
0.000109618
0.000107139
0.000103663
0.000100486
9.69702e-05
9.31648e-05
8.96436e-05
8.60335e-05
8.27638e-05
7.92276e-05
7.64951e-05
7.37948e-05
7.17909e-05
6.95869e-05
6.80017e-05
6.60737e-05
6.46194e-05
6.27786e-05
6.16433e-05