/*--------------------------------*- C++ -*----------------------------------*\
| =========                 |                                                 |
| \\      /  F ield         | foam-extend: Open Source CFD                    |
|  \\    /   O peration     | Version:     4.0                                |
|   \\  /    A nd           | Web:         http://www.foam-extend.org         |
|    \\/     M anipulation  |                                                 |
\*---------------------------------------------------------------------------*/
FoamFile
{
    version     2.0;
    format      ascii;
    class       volScalarField;
    location    "0.013";
    object      h;
}
// * * * * * * * * * * * * * * * * * * * * * * * * * * * * * * * * * * * * * //

dimensions      [0 1 0 0 0 0 0];

internalField   nonuniform List<scalar> 
176451
(
1.00054e-05
9.99719e-06
9.99639e-06
9.99754e-06
9.99899e-06
1.00023e-05
9.99657e-06
9.99927e-06
1.00017e-05
1.0001e-05
1.00028e-05
1.0006e-05
1.00006e-05
9.99923e-06
9.99661e-06
9.99899e-06
1.00004e-05
9.99829e-06
1.00045e-05
9.99977e-06
1.00005e-05
1.00003e-05
9.9991e-06
1.00022e-05
1.00025e-05
1.00024e-05
1.0001e-05
9.99883e-06
9.99858e-06
1.00011e-05
9.9995e-06
1.00009e-05
1.00006e-05
9.99745e-06
9.99624e-06
1.00027e-05
1.00044e-05
1.00024e-05
9.99754e-06
9.99917e-06
9.99696e-06
1.00022e-05
9.99686e-06
9.99972e-06
1.00022e-05
1.00007e-05
9.99971e-06
1.00004e-05
1.00007e-05
1.00051e-05
1.00026e-05
9.99702e-06
9.99975e-06
9.99844e-06
9.99869e-06
1.00014e-05
1.00002e-05
1.00007e-05
9.99742e-06
1.00033e-05
1.00023e-05
9.99818e-06
9.99386e-06
9.99999e-06
1.00006e-05
1.00037e-05
1.0001e-05
1.0002e-05
1.00017e-05
9.99826e-06
9.9984e-06
1.00011e-05
1.00006e-05
1.0003e-05
1.00031e-05
1.00004e-05
1.00028e-05
1.00014e-05
9.99832e-06
9.995e-06
9.99743e-06
1.00022e-05
9.99804e-06
9.99435e-06
1.00025e-05
1.00005e-05
9.99787e-06
1.00029e-05
1.00022e-05
1.00004e-05
1.00005e-05
9.99849e-06
1.00037e-05
9.99928e-06
9.99979e-06
9.99568e-06
9.99603e-06
1.00002e-05
1.00074e-05
9.99779e-06
1.00004e-05
9.99936e-06
1.0004e-05
9.99662e-06
1.00012e-05
9.99942e-06
1.00006e-05
9.99922e-06
1.00023e-05
1.00031e-05
1.00033e-05
1.00006e-05
1.00029e-05
9.99854e-06
1.0004e-05
1.00042e-05
1.0003e-05
9.99931e-06
1.00041e-05
1.00018e-05
1.00016e-05
9.99513e-06
9.99747e-06
9.99846e-06
1.00002e-05
9.99893e-06
9.9993e-06
1.00017e-05
9.99958e-06
1.00014e-05
1.00034e-05
1.0001e-05
9.99953e-06
1.00032e-05
1.00024e-05
9.9965e-06
1.00012e-05
9.99922e-06
1.00005e-05
1.00015e-05
1.00006e-05
9.9944e-06
1.00043e-05
1.00029e-05
9.99886e-06
9.99766e-06
9.99915e-06
1.00035e-05
9.99752e-06
9.99856e-06
1.00048e-05
1.00001e-05
9.99743e-06
1.00009e-05
9.99751e-06
1.00004e-05
9.99953e-06
1.00025e-05
1.00015e-05
1.00014e-05
1.00006e-05
1.00007e-05
9.99537e-06
9.99873e-06
9.99933e-06
1.00007e-05
1.00025e-05
9.9995e-06
9.99787e-06
1.00024e-05
9.99744e-06
9.99846e-06
1.00058e-05
1.00007e-05
9.99828e-06
9.99739e-06
1.00016e-05
9.99728e-06
9.99851e-06
1.00031e-05
1.00006e-05
1.00014e-05
9.99782e-06
1.00008e-05
9.99885e-06
9.99967e-06
9.99977e-06
1.00021e-05
1.00069e-05
1.00044e-05
1.00005e-05
9.99555e-06
9.99048e-06
9.98621e-06
9.98345e-06
9.98273e-06
9.98398e-06
9.98657e-06
9.98988e-06
9.99313e-06
9.99596e-06
9.99808e-06
9.99967e-06
1.00009e-05
1.0002e-05
1.00031e-05
1.00041e-05
1.00051e-05
1.00057e-05
1.00057e-05
1.0005e-05
1.00038e-05
1.0002e-05
9.99985e-06
9.99773e-06
9.99592e-06
9.99463e-06
9.99396e-06
9.99398e-06
9.99467e-06
9.99591e-06
9.99737e-06
9.99894e-06
1.00005e-05
1.00021e-05
1.00038e-05
1.00055e-05
1.00073e-05
1.00089e-05
1.001e-05
1.00102e-05
1.00094e-05
1.00077e-05
1.00054e-05
1.0003e-05
1.00011e-05
9.99987e-06
9.99931e-06
9.99946e-06
9.99993e-06
1.00006e-05
1.00012e-05
1.00017e-05
1.00021e-05
1.00026e-05
1.00029e-05
1.00033e-05
1.00035e-05
1.00036e-05
1.00036e-05
1.00037e-05
1.00039e-05
1.00043e-05
1.00047e-05
1.0005e-05
1.0005e-05
1.00044e-05
1.00031e-05
1.00013e-05
9.99911e-06
9.99689e-06
9.99483e-06
9.99341e-06
9.99268e-06
9.99266e-06
9.99327e-06
9.99434e-06
9.99564e-06
9.99687e-06
9.99795e-06
9.99887e-06
9.9997e-06
1.00005e-05
1.00015e-05
1.00025e-05
1.00032e-05
1.00034e-05
1.0003e-05
1.00021e-05
1.00007e-05
9.99926e-06
9.99792e-06
9.99695e-06
9.99618e-06
9.99548e-06
9.99468e-06
9.99379e-06
9.99268e-06
9.99146e-06
9.99022e-06
9.98924e-06
9.9885e-06
9.98807e-06
9.98798e-06
9.98824e-06
9.98874e-06
9.98942e-06
9.99032e-06
9.9914e-06
9.99251e-06
9.99347e-06
9.99418e-06
9.9946e-06
9.99469e-06
9.99458e-06
9.99451e-06
9.99478e-06
9.99547e-06
9.99655e-06
9.99797e-06
9.99946e-06
1.00007e-05
1.00014e-05
1.00014e-05
1.00009e-05
1.00002e-05
9.99947e-06
9.99906e-06
9.99918e-06
9.99971e-06
1.00005e-05
1.00013e-05
1.00022e-05
1.00029e-05
1.00035e-05
1.0004e-05
1.00045e-05
1.00049e-05
1.00051e-05
1.00053e-05
1.00055e-05
1.00057e-05
1.0006e-05
1.00066e-05
1.00073e-05
1.00081e-05
1.00089e-05
1.00096e-05
1.00097e-05
1.00092e-05
1.00078e-05
1.00056e-05
1.00027e-05
9.99926e-06
9.99585e-06
9.99269e-06
9.99001e-06
9.98803e-06
9.98692e-06
9.98666e-06
9.98716e-06
9.98835e-06
9.9901e-06
9.99237e-06
9.99496e-06
9.99785e-06
1.00009e-05
1.00039e-05
1.00064e-05
1.00079e-05
1.00082e-05
1.0007e-05
1.00045e-05
1.00015e-05
9.99849e-06
9.99616e-06
9.99485e-06
9.99467e-06
9.99541e-06
9.99671e-06
9.99807e-06
9.99919e-06
9.99988e-06
1.00001e-05
1e-05
9.99972e-06
9.99955e-06
9.99963e-06
9.99996e-06
1.00006e-05
1.00013e-05
1.00022e-05
1.00029e-05
1.00035e-05
1.00038e-05
1.0004e-05
1.00039e-05
1.00035e-05
1.0003e-05
1.00024e-05
1.00017e-05
1.0001e-05
1.00003e-05
9.99967e-06
9.99892e-06
9.99815e-06
9.99747e-06
9.99691e-06
9.99645e-06
9.99617e-06
9.99613e-06
9.99635e-06
9.99684e-06
9.99765e-06
9.99871e-06
9.99986e-06
1.00008e-05
1.00012e-05
1.0001e-05
1.00002e-05
9.99888e-06
9.9974e-06
9.99611e-06
9.99521e-06
9.99475e-06
9.99481e-06
9.99535e-06
9.99623e-06
9.99723e-06
9.99817e-06
9.99886e-06
9.9992e-06
9.9991e-06
9.99871e-06
9.99823e-06
9.99786e-06
9.99774e-06
9.99799e-06
9.99863e-06
9.9996e-06
1.00007e-05
1.00017e-05
1.00026e-05
1.00032e-05
1.00034e-05
1.00031e-05
1.00025e-05
1.00016e-05
1.00004e-05
9.9993e-06
9.99841e-06
9.99794e-06
9.99777e-06
9.99793e-06
9.99824e-06
9.99853e-06
9.99865e-06
9.99871e-06
9.99868e-06
9.99846e-06
9.99787e-06
9.99688e-06
9.99529e-06
9.99318e-06
9.9905e-06
9.98788e-06
9.98567e-06
9.98433e-06
9.98392e-06
9.98474e-06
9.98676e-06
9.9897e-06
9.99352e-06
9.99754e-06
1.00016e-05
1.00053e-05
1.00085e-05
1.00107e-05
1.00121e-05
1.00127e-05
1.00125e-05
1.0012e-05
1.00112e-05
1.00105e-05
1.00098e-05
1.00092e-05
1.00087e-05
1.00084e-05
1.0008e-05
1.00076e-05
1.00072e-05
1.00066e-05
1.0006e-05
1.00053e-05
1.00045e-05
1.00035e-05
1.00023e-05
1.0001e-05
9.99983e-06
9.99882e-06
9.99809e-06
9.99775e-06
9.99771e-06
9.99779e-06
9.99787e-06
9.99796e-06
9.99805e-06
9.99814e-06
9.99829e-06
9.99865e-06
9.99931e-06
1.00003e-05
1.00015e-05
1.00029e-05
1.00041e-05
1.00051e-05
1.00055e-05
1.00055e-05
1.00049e-05
1.0004e-05
1.00027e-05
1.00014e-05
1e-05
9.99874e-06
9.99743e-06
9.9964e-06
9.99568e-06
9.99533e-06
9.99539e-06
9.99597e-06
9.997e-06
9.99825e-06
9.99954e-06
1.00006e-05
1.00013e-05
1.00015e-05
1.00011e-05
1.00001e-05
9.99861e-06
9.99693e-06
9.99524e-06
9.99396e-06
9.99333e-06
9.99347e-06
9.9943e-06
9.99554e-06
9.99697e-06
9.99831e-06
9.99945e-06
1.00002e-05
1.00005e-05
1.00006e-05
1.00004e-05
1.00001e-05
9.99992e-06
1.00001e-05
1.00009e-05
1.00022e-05
1.00039e-05
1.00056e-05
1.00069e-05
1.00073e-05
1.00067e-05
1.00053e-05
1.00033e-05
1.00011e-05
9.99923e-06
9.99786e-06
9.99701e-06
9.99658e-06
9.99649e-06
9.99673e-06
9.99734e-06
9.99832e-06
9.99967e-06
1.00012e-05
1.00027e-05
1.00037e-05
1.00039e-05
1.00035e-05
1.00024e-05
1.0001e-05
9.9995e-06
9.99831e-06
9.99743e-06
9.99677e-06
9.99625e-06
9.99577e-06
9.99525e-06
9.99461e-06
9.99391e-06
9.99329e-06
9.99285e-06
9.99268e-06
9.9929e-06
9.99355e-06
9.99453e-06
9.99557e-06
9.99651e-06
9.99717e-06
9.99747e-06
9.99739e-06
9.99707e-06
9.99668e-06
9.99636e-06
9.99613e-06
9.9961e-06
9.99629e-06
9.99675e-06
9.9974e-06
9.99832e-06
9.99949e-06
1.00009e-05
1.00023e-05
1.00036e-05
1.00048e-05
1.00058e-05
1.00065e-05
1.0007e-05
1.00074e-05
1.00077e-05
1.00078e-05
1.00077e-05
1.00072e-05
1.00064e-05
1.0005e-05
1.00032e-05
1.00013e-05
9.99946e-06
9.99801e-06
9.99724e-06
9.99735e-06
9.99836e-06
1e-05
1.00022e-05
1.00043e-05
1.00062e-05
1.00073e-05
1.00075e-05
1.00067e-05
1.00051e-05
1.00027e-05
1.00001e-05
9.99783e-06
9.99612e-06
9.99504e-06
9.9948e-06
9.99515e-06
9.99579e-06
9.99625e-06
9.9962e-06
9.9955e-06
9.99432e-06
9.99288e-06
9.99203e-06
9.99224e-06
9.99384e-06
9.99681e-06
1.00004e-05
1.00041e-05
1.0007e-05
1.00086e-05
1.00088e-05
1.00077e-05
1.00059e-05
1.00036e-05
1.00014e-05
9.99941e-06
9.9977e-06
9.99607e-06
9.99487e-06
9.9941e-06
9.99391e-06
9.9943e-06
9.99532e-06
9.99697e-06
9.99895e-06
1.00012e-05
1.00032e-05
1.0005e-05
1.00062e-05
1.00067e-05
1.00065e-05
1.00057e-05
1.00046e-05
1.00033e-05
1.00024e-05
1.00017e-05
1.00015e-05
1.00014e-05
1.00016e-05
1.00017e-05
1.00019e-05
1.00021e-05
1.00026e-05
1.00032e-05
1.0004e-05
1.00049e-05
1.00057e-05
1.00064e-05
1.00069e-05
1.00072e-05
1.00074e-05
1.00073e-05
1.00069e-05
1.0006e-05
1.00045e-05
1.00026e-05
1.00005e-05
9.99843e-06
9.99675e-06
9.9958e-06
9.99557e-06
9.9959e-06
9.99651e-06
9.99712e-06
9.9974e-06
9.99733e-06
9.99695e-06
9.99641e-06
9.99599e-06
9.99578e-06
9.9959e-06
9.99634e-06
9.99707e-06
9.99811e-06
9.99945e-06
1.0001e-05
1.00026e-05
1.0004e-05
1.0005e-05
1.00053e-05
1.00047e-05
1.00034e-05
1.00019e-05
1.00002e-05
9.99907e-06
9.99846e-06
9.99846e-06
9.99887e-06
9.99937e-06
9.9996e-06
9.99925e-06
9.99832e-06
9.99701e-06
9.99559e-06
9.99435e-06
9.99359e-06
9.99351e-06
9.99412e-06
9.99525e-06
9.99679e-06
9.99847e-06
1.00001e-05
1.00013e-05
1.0002e-05
1.00021e-05
1.00018e-05
1.0001e-05
1.00003e-05
9.9998e-06
9.99994e-06
1.00008e-05
1.00025e-05
1.00048e-05
1.00074e-05
1.00097e-05
1.00115e-05
1.00124e-05
1.00127e-05
1.00123e-05
1.00117e-05
1.00113e-05
1.0011e-05
1.00107e-05
1.00101e-05
1.00088e-05
1.00063e-05
1.00027e-05
9.99806e-06
9.9932e-06
9.98873e-06
9.98552e-06
9.9843e-06
9.98543e-06
9.98877e-06
9.9936e-06
9.99906e-06
1.00039e-05
1.00074e-05
1.00089e-05
1.00084e-05
1.00063e-05
1.00031e-05
9.99967e-06
9.99646e-06
9.994e-06
9.99232e-06
9.99135e-06
9.99097e-06
9.99111e-06
9.99177e-06
9.99295e-06
9.99476e-06
9.99717e-06
1.00001e-05
1.00029e-05
1.00055e-05
1.00073e-05
1.00082e-05
1.00082e-05
1.00074e-05
1.00063e-05
1.00051e-05
1.0004e-05
1.00029e-05
1.0002e-05
1.00012e-05
1.00004e-05
9.99949e-06
9.99863e-06
9.99779e-06
9.99701e-06
9.99639e-06
9.99612e-06
9.9963e-06
9.99689e-06
9.99788e-06
9.99908e-06
1.00003e-05
1.00012e-05
1.00017e-05
1.00017e-05
1.00013e-05
1.00006e-05
9.99993e-06
9.99955e-06
9.99952e-06
9.99979e-06
1.00003e-05
1.00007e-05
1.00009e-05
1.00004e-05
9.9993e-06
9.99754e-06
9.99556e-06
9.99342e-06
9.99181e-06
9.99096e-06
9.99103e-06
9.992e-06
9.99375e-06
9.996e-06
9.99829e-06
1.00003e-05
1.00017e-05
1.00023e-05
1.00021e-05
1.00012e-05
1.00001e-05
9.9989e-06
9.99797e-06
9.99728e-06
9.99704e-06
9.99719e-06
9.99763e-06
9.99822e-06
9.99886e-06
9.99949e-06
1e-05
1.00004e-05
1.00007e-05
1.0001e-05
1.00013e-05
1.00017e-05
1.00021e-05
1.00027e-05
1.00033e-05
1.0004e-05
1.00046e-05
1.00049e-05
1.00048e-05
1.00042e-05
1.00032e-05
1.00018e-05
1.00002e-05
9.99863e-06
9.99726e-06
9.99629e-06
9.99574e-06
9.99557e-06
9.99582e-06
9.99639e-06
9.9971e-06
9.99782e-06
9.99841e-06
9.99879e-06
9.99892e-06
9.99887e-06
9.99878e-06
9.99875e-06
9.99883e-06
9.9991e-06
9.9996e-06
1.00003e-05
1.00011e-05
1.00018e-05
1.00023e-05
1.00024e-05
1.0002e-05
1.00011e-05
9.99975e-06
9.9981e-06
9.99642e-06
9.99503e-06
9.9943e-06
9.99441e-06
9.99535e-06
9.99698e-06
9.99899e-06
1.00011e-05
1.00028e-05
1.0004e-05
1.00045e-05
1.00044e-05
1.0004e-05
1.00035e-05
1.00033e-05
1.00034e-05
1.00038e-05
1.00045e-05
1.00051e-05
1.00055e-05
1.00056e-05
1.00052e-05
1.00043e-05
1.00033e-05
1.00022e-05
1.00012e-05
1.00003e-05
9.99974e-06
9.9994e-06
9.99926e-06
9.99917e-06
9.9991e-06
9.99902e-06
9.99882e-06
9.99838e-06
9.99772e-06
9.99695e-06
9.99618e-06
9.99551e-06
9.99511e-06
9.99513e-06
9.99561e-06
9.99649e-06
9.99773e-06
9.99915e-06
1.00006e-05
1.00018e-05
1.00025e-05
1.00028e-05
1.00027e-05
1.00023e-05
1.00019e-05
1.00017e-05
1.0002e-05
1.00028e-05
1.00038e-05
1.00049e-05
1.00059e-05
1.00065e-05
1.00066e-05
1.00063e-05
1.00059e-05
1.00052e-05
1.00046e-05
1.00041e-05
1.00036e-05
1.00029e-05
1.0002e-05
1.00007e-05
9.99896e-06
9.99687e-06
9.99458e-06
9.99245e-06
9.99068e-06
9.98954e-06
9.98921e-06
9.98971e-06
9.99089e-06
9.99242e-06
9.99407e-06
9.99558e-06
9.99687e-06
9.99787e-06
9.99872e-06
9.99958e-06
1.00006e-05
1.00016e-05
1.00026e-05
1.00034e-05
1.00039e-05
1.00039e-05
1.00034e-05
1.00026e-05
1.00016e-05
1.00007e-05
9.99991e-06
9.9995e-06
9.99939e-06
9.99943e-06
9.99955e-06
9.99971e-06
9.9999e-06
1.00001e-05
1.00004e-05
1.0001e-05
1.00017e-05
1.00026e-05
1.00034e-05
1.00042e-05
1.00048e-05
1.0005e-05
1.00048e-05
1.00041e-05
1.00031e-05
1.00017e-05
1.00003e-05
9.99899e-06
9.99802e-06
9.99752e-06
9.99773e-06
9.99859e-06
9.9999e-06
1.00014e-05
1.00026e-05
1.00034e-05
1.00033e-05
1.00022e-05
1.00006e-05
9.99842e-06
9.99634e-06
9.99448e-06
9.99338e-06
9.99304e-06
9.99339e-06
9.9942e-06
9.99518e-06
9.99617e-06
9.99703e-06
9.99773e-06
9.99833e-06
9.9989e-06
9.99951e-06
1.00002e-05
1.00009e-05
1.00016e-05
1.00021e-05
1.00024e-05
1.00024e-05
1.0002e-05
1.00013e-05
1.00002e-05
9.99902e-06
9.99772e-06
9.99655e-06
9.99555e-06
9.99511e-06
9.9952e-06
9.99586e-06
9.997e-06
9.99839e-06
9.99984e-06
1.0001e-05
1.00017e-05
1.0002e-05
1.00017e-05
1.00012e-05
1.00007e-05
1.00005e-05
1.00006e-05
1.00012e-05
1.0002e-05
1.00029e-05
1.00037e-05
1.00041e-05
1.00041e-05
1.00038e-05
1.0003e-05
1.0002e-05
1.00008e-05
9.99967e-06
9.99855e-06
9.99767e-06
9.99691e-06
9.99648e-06
9.9963e-06
9.99647e-06
9.9969e-06
9.99755e-06
9.99831e-06
9.99905e-06
9.99971e-06
1.00002e-05
1.00006e-05
1.00008e-05
1.0001e-05
1.00013e-05
1.00016e-05
1.0002e-05
1.00023e-05
1.00024e-05
1.00023e-05
1.00019e-05
1.00012e-05
1.00004e-05
9.99954e-06
9.99879e-06
9.99821e-06
9.99798e-06
9.99805e-06
9.9984e-06
9.99892e-06
9.99952e-06
1.00001e-05
1.00004e-05
1.00006e-05
1.00006e-05
1.00005e-05
1.00005e-05
1.00005e-05
1.00006e-05
1.00008e-05
1.00011e-05
1.00015e-05
1.00017e-05
1.00018e-05
1.00017e-05
1.00015e-05
1.0001e-05
1.00005e-05
1.00001e-05
9.99978e-06
9.99966e-06
9.99981e-06
1.00003e-05
1.00011e-05
1.00021e-05
1.00031e-05
1.00038e-05
1.00043e-05
1.00041e-05
1.00033e-05
1.00021e-05
1.00003e-05
9.9984e-06
9.99652e-06
9.99502e-06
9.99405e-06
9.9937e-06
9.99398e-06
9.99479e-06
9.99597e-06
9.99724e-06
9.99844e-06
9.99943e-06
1.00002e-05
1.00006e-05
1.00009e-05
1.0001e-05
1.00011e-05
1.00011e-05
1.00009e-05
1.00006e-05
9.99991e-06
9.99893e-06
9.99772e-06
9.99655e-06
9.9956e-06
9.99509e-06
9.99525e-06
9.99618e-06
9.99788e-06
1.00001e-05
1.00026e-05
1.0005e-05
1.00071e-05
1.00084e-05
1.00088e-05
1.00083e-05
1.00071e-05
1.00052e-05
1.00031e-05
1.00011e-05
9.99934e-06
9.99803e-06
9.99726e-06
9.99708e-06
9.99736e-06
9.99793e-06
9.99872e-06
9.99964e-06
1.00006e-05
1.00013e-05
1.00017e-05
1.00016e-05
1.00012e-05
1.00005e-05
9.9996e-06
9.99886e-06
9.99839e-06
9.99821e-06
9.99831e-06
9.9986e-06
9.99894e-06
9.9991e-06
9.99905e-06
9.99888e-06
9.9986e-06
9.99822e-06
9.99784e-06
9.99758e-06
9.99753e-06
9.99768e-06
9.998e-06
9.99853e-06
9.9992e-06
9.9999e-06
1.00006e-05
1.00011e-05
1.00015e-05
1.00018e-05
1.00018e-05
1.00016e-05
1.00012e-05
1.00007e-05
1.00003e-05
9.99992e-06
9.99977e-06
9.99976e-06
9.99993e-06
1.00003e-05
1.00007e-05
1.00011e-05
1.00014e-05
1.00017e-05
1.00018e-05
1.00019e-05
1.00018e-05
1.00017e-05
1.00015e-05
1.00013e-05
1.0001e-05
1.00007e-05
1.00004e-05
1.00002e-05
9.99999e-06
9.99988e-06
9.99986e-06
9.99984e-06
9.99984e-06
9.99987e-06
9.99992e-06
9.99989e-06
9.99981e-06
9.99964e-06
9.99949e-06
9.99927e-06
9.99907e-06
9.99888e-06
9.99885e-06
9.99897e-06
9.99928e-06
9.99969e-06
1.00002e-05
1.00006e-05
1.00009e-05
1.00011e-05
1.00012e-05
1.0001e-05
1.00008e-05
1.00003e-05
9.99992e-06
9.99945e-06
9.99909e-06
9.99878e-06
9.99865e-06
9.99861e-06
9.99871e-06
9.99886e-06
9.9991e-06
9.99933e-06
9.99959e-06
9.99984e-06
1.00001e-05
1.00003e-05
1.00005e-05
1.00007e-05
1.00009e-05
1.00011e-05
1.00013e-05
1.00016e-05
1.00018e-05
1.00018e-05
1.00017e-05
1.00014e-05
1.00009e-05
1.00002e-05
9.99942e-06
9.99873e-06
9.99822e-06
9.9979e-06
9.99791e-06
9.99818e-06
9.99868e-06
9.99932e-06
9.99999e-06
1.00006e-05
1.00012e-05
1.00015e-05
1.00017e-05
1.00018e-05
1.00017e-05
1.00014e-05
1.00011e-05
1.00006e-05
1.00002e-05
9.99993e-06
9.99971e-06
9.99962e-06
9.9997e-06
9.9999e-06
1.00001e-05
1.00002e-05
1.00002e-05
1.00003e-05
1.00003e-05
1.00004e-05
1.00006e-05
1.00009e-05
1.00012e-05
1.00015e-05
1.00017e-05
1.00017e-05
1.00015e-05
1.0001e-05
1.00005e-05
9.99991e-06
9.99934e-06
9.99887e-06
9.99859e-06
9.99852e-06
9.99861e-06
9.99885e-06
9.99922e-06
9.99966e-06
1e-05
1.00003e-05
1.00004e-05
1.00005e-05
1.00003e-05
1.00001e-05
9.99993e-06
9.99983e-06
9.99977e-06
9.99979e-06
9.99991e-06
1.00001e-05
1.00003e-05
1.00005e-05
1.00007e-05
1.00008e-05
1.00009e-05
1.00008e-05
1.00007e-05
1.00005e-05
1.00002e-05
9.99976e-06
9.99936e-06
9.99896e-06
9.99855e-06
9.99823e-06
9.99811e-06
9.99821e-06
9.99844e-06
9.9988e-06
9.99931e-06
9.99994e-06
1.00006e-05
1.00011e-05
1.00016e-05
1.00018e-05
1.00018e-05
1.00016e-05
1.00012e-05
1.00007e-05
1.00002e-05
9.99981e-06
9.99953e-06
9.99941e-06
9.99934e-06
9.99929e-06
9.99925e-06
9.99916e-06
9.99896e-06
9.99868e-06
9.99842e-06
9.99823e-06
9.99812e-06
9.99813e-06
9.99831e-06
9.99862e-06
9.99895e-06
9.99926e-06
9.99953e-06
9.99975e-06
9.99985e-06
9.99989e-06
9.99992e-06
9.99995e-06
9.99997e-06
1e-05
1.00001e-05
1.00003e-05
1.00004e-05
1.00004e-05
1.00004e-05
1.00004e-05
1.00004e-05
1.00005e-05
1.00005e-05
1.00005e-05
1.00004e-05
1.00002e-05
1e-05
9.9999e-06
9.99972e-06
9.99958e-06
9.99948e-06
9.99952e-06
9.99962e-06
9.99979e-06
9.99997e-06
1.00002e-05
1.00003e-05
1.00003e-05
1.00003e-05
1.00002e-05
1.00001e-05
1e-05
9.99989e-06
9.99981e-06
9.99973e-06
9.99971e-06
9.99971e-06
9.99982e-06
9.99992e-06
1e-05
1.00002e-05
1.00003e-05
1.00004e-05
1.00005e-05
1.00004e-05
1.00003e-05
1.00002e-05
1.00001e-05
9.99995e-06
9.99993e-06
1e-05
1.00002e-05
1.00004e-05
1.00006e-05
1.00006e-05
1.00006e-05
1.00005e-05
1.00004e-05
1.00002e-05
1e-05
9.99977e-06
9.99964e-06
9.99957e-06
9.99963e-06
9.99975e-06
9.99994e-06
1.00001e-05
1.00001e-05
1.00001e-05
1.00001e-05
1e-05
9.99995e-06
9.99992e-06
9.99992e-06
9.99991e-06
9.99993e-06
9.99991e-06
9.99992e-06
9.99991e-06
9.99993e-06
9.99996e-06
1e-05
1.00001e-05
1.00002e-05
1.00006e-05
1.0001e-05
1.00016e-05
1.00022e-05
1.00025e-05
1.0002e-05
1.00006e-05
9.99783e-06
9.99415e-06
9.98984e-06
9.98562e-06
9.98198e-06
9.98018e-06
9.98054e-06
9.98326e-06
9.98922e-06
9.99725e-06
1.00073e-05
1.00203e-05
1.00345e-05
1.0049e-05
1.00638e-05
1.00801e-05
1.00957e-05
1.011e-05
1.01242e-05
1.014e-05
1.01556e-05
1.01713e-05
1.01869e-05
1.02009e-05
1.02099e-05
1.02094e-05
1.01932e-05
1.01486e-05
1.00723e-05
9.9582e-06
9.80503e-06
9.60158e-06
9.37481e-06
9.14297e-06
8.93147e-06
8.76194e-06
8.67874e-06
8.70534e-06
8.85525e-06
9.17286e-06
9.61927e-06
1.01728e-05
1.08189e-05
1.16172e-05
1.24504e-05
1.32862e-05
1.41336e-05
1.50819e-05
1.60023e-05
1.68753e-05
1.7733e-05
1.86742e-05
1.95653e-05
2.0381e-05
2.11558e-05
2.19888e-05
2.27628e-05
2.34771e-05
2.41988e-05
2.50636e-05
2.59864e-05
2.69899e-05
2.81274e-05
2.95176e-05
3.1016e-05
3.25935e-05
3.42258e-05
3.60294e-05
3.78214e-05
3.9571e-05
4.12704e-05
4.3033e-05
4.47e-05
4.62449e-05
4.76688e-05
4.9089e-05
5.03629e-05
5.14773e-05
5.24571e-05
5.34065e-05
5.42057e-05
5.48481e-05
5.53745e-05
5.58867e-05
5.63031e-05
5.66169e-05
5.68748e-05
5.71282e-05
5.72997e-05
5.73618e-05
5.73461e-05
5.73023e-05
5.71667e-05
5.69212e-05
5.66046e-05
5.6241e-05
5.57871e-05
5.52251e-05
5.4612e-05
5.39768e-05
5.33004e-05
5.25471e-05
5.17599e-05
5.09424e-05
5.01118e-05
4.9244e-05
4.84214e-05
4.755e-05
4.65667e-05
4.54992e-05
4.42964e-05
4.3013e-05
4.16044e-05
4.02353e-05
3.87649e-05
3.73081e-05
3.56332e-05
3.38573e-05
3.17254e-05
2.94253e-05
2.67437e-05
2.40076e-05
2.11834e-05
1.88712e-05
1.73078e-05
1.71796e-05
1.89568e-05
2.23854e-05
2.71304e-05
3.16261e-05
3.51704e-05
3.63488e-05
3.38221e-05
2.78079e-05
2.37148e-05
3.13145e-05
4.59447e-05
5.60558e-05
6.37914e-05
6.94118e-05
7.27634e-05
7.38783e-05
7.41084e-05
7.3997e-05
7.34827e-05
7.25343e-05
7.13499e-05
7.02928e-05
6.92957e-05
6.85253e-05
6.78101e-05
6.73277e-05
6.70938e-05
6.7117e-05
6.73204e-05
6.76187e-05
6.79525e-05
6.83974e-05
6.88343e-05
6.91296e-05
6.9432e-05
6.95623e-05
6.9653e-05
6.96608e-05
6.96015e-05
6.95045e-05
6.93707e-05
6.92594e-05
6.91531e-05
6.89742e-05
6.88567e-05
6.87397e-05
6.8655e-05
6.85327e-05
6.84809e-05
6.84316e-05
6.84128e-05
6.83751e-05
6.8437e-05
6.84387e-05
6.84414e-05
6.85014e-05
6.84996e-05
6.85196e-05
6.85304e-05
6.84939e-05
6.85322e-05
6.85029e-05
6.85364e-05
6.85419e-05
6.85789e-05
6.86048e-05
6.85493e-05
6.85714e-05
6.85342e-05
6.85403e-05
6.85495e-05
6.85952e-05
6.85957e-05
6.85944e-05
6.85941e-05
6.86114e-05
6.86345e-05
6.87142e-05
6.87704e-05
6.88038e-05
6.88482e-05
6.88837e-05
6.88742e-05
6.88601e-05
6.88583e-05
6.88431e-05
6.87993e-05
6.87654e-05
6.87592e-05
6.87533e-05
6.87211e-05
6.87006e-05
6.87088e-05
6.87191e-05
6.87013e-05
6.86986e-05
6.87288e-05
6.87633e-05
6.87699e-05
6.87899e-05
6.88368e-05
6.88722e-05
6.88576e-05
6.88341e-05
6.88158e-05
6.8774e-05
6.86847e-05
6.86002e-05
6.85479e-05
6.85186e-05
6.84949e-05
6.85235e-05
6.86203e-05
6.87425e-05
6.88389e-05
6.89301e-05
6.90065e-05
6.90091e-05
6.8894e-05
6.87081e-05
6.84865e-05
6.82571e-05
6.80421e-05
6.79418e-05
6.80155e-05
6.82598e-05
6.85964e-05
6.90256e-05
6.9466e-05
6.97619e-05
6.98123e-05
6.95881e-05
6.90314e-05
6.82032e-05
6.73394e-05
6.67294e-05
6.65819e-05
6.71347e-05
6.85231e-05
7.06238e-05
7.27935e-05
7.41532e-05
7.44394e-05
7.31036e-05
6.77537e-05
5.60084e-05
3.88344e-05
2.60835e-05
2.3362e-05
2.55339e-05
2.72846e-05
2.79101e-05
2.87852e-05
2.90125e-05
2.7667e-05
2.53084e-05
2.32275e-05
2.20867e-05
2.13728e-05
2.10521e-05
2.13676e-05
2.21923e-05
2.31459e-05
2.40504e-05
2.50134e-05
2.61079e-05
2.73365e-05
2.85465e-05
2.97094e-05
3.08457e-05
3.20667e-05
3.33507e-05
3.47158e-05
3.60973e-05
3.74838e-05
3.87877e-05
4.00163e-05
4.11908e-05
4.22927e-05
4.33241e-05
4.4325e-05
4.52906e-05
4.62521e-05
4.72691e-05
4.81987e-05
4.90813e-05
4.98537e-05
5.0503e-05
5.10027e-05
5.13689e-05
5.15894e-05
5.17345e-05
5.18018e-05
5.17497e-05
5.15936e-05
5.13023e-05
5.09182e-05
5.03893e-05
4.98078e-05
4.91228e-05
4.84208e-05
4.75758e-05
4.6658e-05
4.56024e-05
4.45249e-05
4.32994e-05
4.21141e-05
4.08997e-05
3.98276e-05
3.87558e-05
3.78222e-05
3.6965e-05
3.62812e-05
3.56557e-05
3.51571e-05
3.47232e-05
3.43996e-05
3.4027e-05
3.36374e-05
3.3185e-05
3.27548e-05
3.22237e-05
3.16345e-05
3.11959e-05
3.05498e-05
2.99924e-05
2.93562e-05
2.88397e-05
2.8127e-05
2.74934e-05
2.67709e-05
2.60148e-05
2.52088e-05
2.43553e-05
2.34568e-05
2.24133e-05
2.15181e-05
2.05655e-05
1.96035e-05
1.87007e-05
1.77784e-05
1.68616e-05
1.59675e-05
1.50012e-05
1.40717e-05
1.31853e-05
1.23506e-05
1.15966e-05
1.09213e-05
1.0328e-05
9.84686e-06
9.43165e-06
9.09697e-06
8.8809e-06
8.73567e-06
8.66627e-06
8.66972e-06
8.7319e-06
8.83472e-06
8.96633e-06
9.12078e-06
9.2755e-06
9.43749e-06
9.59342e-06
9.73483e-06
9.86715e-06
9.97173e-06
1.00609e-05
1.01296e-05
1.01733e-05
1.02005e-05
1.02116e-05
1.02078e-05
1.01918e-05
1.01681e-05
1.01381e-05
1.01065e-05
1.00741e-05
1.00445e-05
1.00194e-05
9.99874e-06
9.98267e-06
9.97246e-06
9.96725e-06
9.96604e-06
9.96812e-06
9.97259e-06
9.97839e-06
9.98475e-06
9.9912e-06
9.99685e-06
1.00014e-05
1.00046e-05
1.00066e-05
1.00071e-05
1.00064e-05
1.00048e-05
1.00026e-05
1.00002e-05
9.998e-06
9.9963e-06
9.99533e-06
9.99524e-06
9.99591e-06
9.99698e-06
9.99816e-06
9.99921e-06
1e-05
1.00005e-05
1.00007e-05
1.00009e-05
1.00011e-05
1.00015e-05
1.00017e-05
1.00019e-05
1.00019e-05
1.00015e-05
1.00007e-05
9.99959e-06
9.99839e-06
9.99727e-06
9.99648e-06
9.99629e-06
9.99686e-06
9.99806e-06
9.9997e-06
1.00014e-05
1.00029e-05
1.00038e-05
1.0004e-05
1.00035e-05
1.00026e-05
1.00015e-05
1.00006e-05
1.00002e-05
1.00002e-05
1.00006e-05
1.00011e-05
1.00015e-05
1.00017e-05
1.00015e-05
1.00009e-05
1.00002e-05
9.99951e-06
9.99885e-06
9.99837e-06
9.99816e-06
9.99821e-06
9.99841e-06
9.99873e-06
9.99911e-06
9.9995e-06
9.99976e-06
9.99988e-06
9.9999e-06
9.99986e-06
9.99974e-06
9.99958e-06
9.99946e-06
9.99943e-06
9.99941e-06
9.99939e-06
9.99938e-06
9.99937e-06
9.99926e-06
9.99905e-06
9.9988e-06
9.9986e-06
9.99848e-06
9.99853e-06
9.99883e-06
9.99943e-06
1.00002e-05
1.0001e-05
1.00016e-05
1.00018e-05
1.00015e-05
1.00008e-05
9.99991e-06
9.99911e-06
9.99837e-06
9.99783e-06
9.9975e-06
9.99748e-06
9.99769e-06
9.9981e-06
9.99861e-06
9.99908e-06
9.99937e-06
9.99939e-06
9.99906e-06
9.99859e-06
9.99806e-06
9.99784e-06
9.99813e-06
9.99896e-06
1.00002e-05
1.00016e-05
1.00028e-05
1.00035e-05
1.00035e-05
1.00026e-05
1.0001e-05
9.99915e-06
9.99715e-06
9.99564e-06
9.99471e-06
9.99465e-06
9.99533e-06
9.99652e-06
9.99803e-06
9.99957e-06
1.00011e-05
1.00023e-05
1.00033e-05
1.00038e-05
1.00039e-05
1.00037e-05
1.0003e-05
1.00023e-05
1.00012e-05
1.00002e-05
9.99938e-06
9.99877e-06
9.99859e-06
9.99884e-06
9.99939e-06
1e-05
1.00006e-05
1.0001e-05
1.0001e-05
1.00008e-05
1.00004e-05
1.00001e-05
9.99983e-06
9.9995e-06
9.9991e-06
9.9985e-06
9.99774e-06
9.99706e-06
9.99696e-06
9.99695e-06
9.99716e-06
9.99751e-06
9.99798e-06
9.99849e-06
9.99894e-06
9.99931e-06
9.99961e-06
9.9999e-06
1e-05
1.00001e-05
1.00002e-05
1.00002e-05
1.00002e-05
1.00002e-05
1.00002e-05
1.00002e-05
1.00002e-05
1.00002e-05
1.00001e-05
1e-05
9.9999e-06
9.99968e-06
9.99945e-06
9.99921e-06
9.99907e-06
9.99904e-06
9.99916e-06
9.9994e-06
9.99972e-06
1e-05
1.00002e-05
1.00003e-05
1.00004e-05
1.00004e-05
1.00004e-05
1.00003e-05
1.00002e-05
1e-05
9.99971e-06
9.9994e-06
9.99926e-06
9.99927e-06
9.99942e-06
9.99966e-06
9.99994e-06
1.00001e-05
1.00003e-05
1.00003e-05
1.00003e-05
1.00002e-05
1.00001e-05
1.00001e-05
1.00001e-05
1.00001e-05
1.00002e-05
1.00002e-05
1.00003e-05
1.00003e-05
1.00003e-05
1.00001e-05
9.99995e-06
9.99965e-06
9.99939e-06
9.99924e-06
9.99925e-06
9.99939e-06
9.99964e-06
9.99994e-06
1.00003e-05
1.00005e-05
1.00007e-05
1.00006e-05
1.00005e-05
1.00004e-05
1.00003e-05
1.00002e-05
1.00001e-05
9.99984e-06
9.99956e-06
9.99941e-06
9.99941e-06
9.99951e-06
9.99965e-06
9.99982e-06
9.99999e-06
1.00001e-05
1.00001e-05
1.00002e-05
1.00002e-05
1.00002e-05
1.00001e-05
1e-05
1e-05
9.99997e-06
9.99993e-06
9.99994e-06
9.99995e-06
9.99998e-06
1e-05
1.00001e-05
1.00002e-05
1.00003e-05
1.00003e-05
1.00003e-05
1.00003e-05
1.00003e-05
1.00002e-05
1.00001e-05
9.99999e-06
9.9999e-06
9.99976e-06
9.99969e-06
9.99971e-06
9.9998e-06
9.99984e-06
9.99986e-06
9.99982e-06
9.9998e-06
9.9998e-06
9.9999e-06
1e-05
1.00002e-05
1.00003e-05
1.00003e-05
1.00003e-05
1.00002e-05
1e-05
9.99994e-06
9.99996e-06
1e-05
1.00001e-05
1e-05
1e-05
1.00001e-05
1.00003e-05
1.00008e-05
1.00014e-05
1.00015e-05
1.00005e-05
9.9976e-06
9.99269e-06
9.98599e-06
9.98035e-06
9.9795e-06
9.988e-06
1.00129e-05
1.00505e-05
1.0106e-05
1.01592e-05
1.02e-05
1.02073e-05
1.01653e-05
1.00719e-05
9.89725e-06
9.68819e-06
9.38919e-06
9.11026e-06
8.83721e-06
8.67014e-06
8.59316e-06
8.66292e-06
8.96252e-06
9.3352e-06
9.97436e-06
1.0634e-05
1.16569e-05
1.26099e-05
1.4001e-05
1.52354e-05
1.6918e-05
1.84015e-05
2.04322e-05
2.20561e-05
2.36805e-05
2.54201e-05
2.72985e-05
2.90834e-05
3.09066e-05
3.27587e-05
3.47038e-05
3.66855e-05
3.85293e-05
4.0486e-05
4.25189e-05
4.45389e-05
4.64342e-05
4.84495e-05
5.09044e-05
5.29846e-05
5.49561e-05
5.67042e-05
5.86485e-05
6.04705e-05
6.20572e-05
6.36516e-05
6.5188e-05
6.66689e-05
6.79634e-05
6.92934e-05
7.06554e-05
7.18264e-05
7.30651e-05
7.40106e-05
7.50659e-05
7.6025e-05
7.68049e-05
7.75828e-05
7.84175e-05
7.91183e-05
7.99629e-05
8.06198e-05
8.14633e-05
8.22539e-05
8.28785e-05
8.34718e-05
8.40372e-05
8.43785e-05
8.47323e-05
8.48476e-05
8.50445e-05
8.51979e-05
8.52745e-05
8.53787e-05
8.55577e-05
8.56834e-05
8.57066e-05
8.56621e-05
8.56019e-05
8.54199e-05
8.51156e-05
8.47156e-05
8.42595e-05
8.36598e-05
8.29577e-05
8.21947e-05
8.15042e-05
8.08732e-05
8.03393e-05
7.9808e-05
7.92046e-05
7.83791e-05
7.73719e-05
7.62072e-05
7.50771e-05
7.40219e-05
7.3073e-05
7.19511e-05
7.05701e-05
6.89642e-05
6.74554e-05
6.61083e-05
6.49892e-05
6.39842e-05
6.30771e-05
6.21367e-05
6.12653e-05
6.03713e-05
5.93731e-05
5.84698e-05
5.77789e-05
5.71471e-05
5.68149e-05
5.6941e-05
5.73073e-05
5.78985e-05
5.85926e-05
5.94859e-05
6.00938e-05
6.04872e-05
6.12097e-05
6.15923e-05
6.22469e-05
6.30892e-05
6.38775e-05
6.47296e-05
6.60815e-05
6.76011e-05
6.96282e-05
7.21799e-05
7.52339e-05
7.87278e-05
8.2265e-05
8.71838e-05
9.2291e-05
9.81867e-05
0.000103423
0.000108726
0.000113081
0.00011623
0.000115336
0.000113088
0.000109536
0.000105519
0.00010156
9.54457e-05
8.85924e-05
8.13457e-05
8.13252e-05
9.54834e-05
0.000132956
0.000212511
0.000270484
0.000297307
0.000304929
0.000345186
0.000365929
0.000342477
0.000328242
0.000361401
0.000336894
0.000343494
0.000340498
0.000347453
0.000344312
0.000349995
0.000341875
0.000338991
0.000355362
0.000351525
0.00034708
0.000355707
0.000344792
0.000344197
0.000341507
0.000357515
0.000336944
0.000329009
0.000320085
0.000347643
0.000334537
0.000334305
0.000319246
0.000346858
0.000336986
0.000377893
0.000374204
0.000346512
0.000352859
0.000358483
0.000349896
0.000361537
0.000394233
0.000370474
0.00034135
0.000338617
0.000342382
0.000353489
0.000319823
0.000359945
0.000379647
0.000353298
0.00035458
0.000351815
0.000380569
0.000340222
0.00033772
0.000340257
0.000328692
0.000364169
0.000349698
0.000350436
0.000329817
0.000349388
0.000329615
0.000357573
0.000400165
0.000347917
0.000325083
0.000346479
0.000334031
0.00035128
0.000344254
0.000351747
0.000326834
0.000334791
0.000360555
0.000356436
0.00034207
0.000343275
0.000352585
0.000335355
0.000339171
0.000351732
0.000342696
0.000347831
0.000360356
0.000351212
0.000342905
0.000348388
0.000335511
0.000349555
0.000322674
0.000331816
0.000332578
0.000372429