/*--------------------------------*- C++ -*----------------------------------*\
| =========                 |                                                 |
| \\      /  F ield         | foam-extend: Open Source CFD                    |
|  \\    /   O peration     | Version:     4.0                                |
|   \\  /    A nd           | Web:         http://www.foam-extend.org         |
|    \\/     M anipulation  |                                                 |
\*---------------------------------------------------------------------------*/
FoamFile
{
    version     2.0;
    format      ascii;
    class       volScalarField;
    location    "0.003";
    object      h;
}
// * * * * * * * * * * * * * * * * * * * * * * * * * * * * * * * * * * * * * //

dimensions      [0 1 0 0 0 0 0];

internalField   nonuniform List<scalar> 
176451
(
1.00016e-05
1.00009e-05
9.99866e-06
1.00006e-05
9.99964e-06
9.9984e-06
1.00001e-05
1.00003e-05
1.00011e-05
9.99831e-06
9.99939e-06
1.00044e-05
1.0002e-05
1.00022e-05
1.00022e-05
9.99981e-06
1.00019e-05
9.99731e-06
1.00016e-05
1.00004e-05
1.00009e-05
1.00006e-05
1.00009e-05
1.00007e-05
1.00018e-05
9.99996e-06
1.00009e-05
1.00008e-05
9.99859e-06
9.99978e-06
9.99963e-06
1.00024e-05
9.99967e-06
9.99863e-06
9.99988e-06
1.00002e-05
1.00002e-05
1.00024e-05
9.99916e-06
9.99909e-06
1.00017e-05
1.00011e-05
9.99988e-06
9.99806e-06
1.00002e-05
9.99915e-06
1.00004e-05
9.99945e-06
1.00012e-05
1.00009e-05
1.0004e-05
9.9996e-06
9.99836e-06
1.00016e-05
9.99891e-06
9.99919e-06
1.00004e-05
9.99907e-06
9.99716e-06
9.99813e-06
1.00004e-05
9.99768e-06
9.9967e-06
9.99734e-06
9.99862e-06
1.00037e-05
9.9981e-06
1.00004e-05
1.0003e-05
9.99997e-06
9.99979e-06
9.99949e-06
9.99994e-06
1.00015e-05
1.0001e-05
1.0001e-05
9.99945e-06
1.00032e-05
9.9998e-06
9.99754e-06
9.99998e-06
1.00012e-05
9.99857e-06
9.99844e-06
9.99918e-06
1.00009e-05
9.99992e-06
9.99912e-06
1.00002e-05
1.0002e-05
1.00007e-05
9.99904e-06
1.00007e-05
1.00012e-05
9.99785e-06
9.99816e-06
9.99809e-06
1.00011e-05
1.00039e-05
9.9994e-06
9.99987e-06
9.9992e-06
1.00023e-05
9.99978e-06
9.99965e-06
9.99865e-06
1.00006e-05
1.00001e-05
9.99906e-06
1.00024e-05
1.00051e-05
1.00004e-05
1.00019e-05
9.9998e-06
1.00004e-05
1.00048e-05
9.99863e-06
9.99776e-06
1.00023e-05
1.00025e-05
9.99855e-06
1.00007e-05
9.99776e-06
9.99882e-06
1.00017e-05
9.9994e-06
9.99767e-06
1.0001e-05
9.99944e-06
1.00006e-05
1.00007e-05
1.00014e-05
9.99917e-06
1.00029e-05
1.00008e-05
1.00018e-05
1.00019e-05
9.99853e-06
1.0003e-05
1e-05
9.99924e-06
9.99947e-06
1.00024e-05
1.00013e-05
1.00004e-05
1.0001e-05
9.99951e-06
9.99786e-06
1.00021e-05
9.99815e-06
1.00041e-05
9.9997e-06
9.99737e-06
9.9989e-06
9.9966e-06
1.00009e-05
9.99984e-06
1.00001e-05
1.00028e-05
9.99985e-06
1.00012e-05
1.00014e-05
9.99923e-06
1.00009e-05
9.99797e-06
1.00017e-05
1.00013e-05
1.00007e-05
9.99756e-06
1.00022e-05
9.99789e-06
9.99952e-06
1.00023e-05
1.00001e-05
1.00004e-05
9.9993e-06
1.00011e-05
9.99845e-06
1.00017e-05
9.99788e-06
1.00016e-05
1e-05
9.99886e-06
9.99879e-06
9.99746e-06
1.00001e-05
1.00026e-05
1.00007e-05
1.00022e-05
9.99992e-06
1.00001e-05
1.00001e-05
9.99997e-06
9.9998e-06
9.99966e-06
9.99959e-06
9.99966e-06
9.99977e-06
9.99989e-06
9.99999e-06
1.00001e-05
1e-05
9.99999e-06
9.99999e-06
1e-05
1.00001e-05
1.00002e-05
1.00003e-05
1.00004e-05
1.00004e-05
1.00003e-05
1.00002e-05
1.00002e-05
1.00001e-05
1.00001e-05
1.00001e-05
1.00002e-05
1.00003e-05
1.00003e-05
1.00004e-05
1.00004e-05
1.00004e-05
1.00003e-05
1.00003e-05
1.00002e-05
1.00001e-05
1e-05
1e-05
1.00001e-05
1e-05
1.00001e-05
1.00001e-05
1.00003e-05
1.00004e-05
1.00005e-05
1.00006e-05
1.00006e-05
1.00006e-05
1.00005e-05
1.00004e-05
1.00003e-05
1.00001e-05
9.99998e-06
9.99992e-06
9.99995e-06
9.99998e-06
1.00001e-05
1.00002e-05
1.00002e-05
1.00001e-05
1.00001e-05
9.99999e-06
9.99996e-06
9.99993e-06
1e-05
1.00001e-05
1.00002e-05
1.00003e-05
1.00003e-05
1.00003e-05
1.00002e-05
1.00002e-05
1.00001e-05
1.00001e-05
1.00001e-05
1.00001e-05
1.00001e-05
1.00001e-05
1.00001e-05
1e-05
1e-05
1.00001e-05
1.00001e-05
1.00002e-05
1.00003e-05
1.00004e-05
1.00004e-05
1.00002e-05
1.00001e-05
9.99991e-06
9.99977e-06
9.99969e-06
9.99975e-06
9.99984e-06
9.99994e-06
1.00001e-05
1.00002e-05
1.00003e-05
1.00003e-05
1.00003e-05
1.00003e-05
1.00002e-05
1.00001e-05
1.00001e-05
1.00002e-05
1.00002e-05
1.00002e-05
1.00001e-05
1.00001e-05
1.00001e-05
1.00001e-05
1.00001e-05
1.00001e-05
1.00002e-05
1.00002e-05
1.00001e-05
1.00001e-05
1.00001e-05
9.99999e-06
9.9999e-06
9.99993e-06
1e-05
1.00001e-05
1.00002e-05
1.00004e-05
1.00004e-05
1.00004e-05
1.00003e-05
1.00003e-05
1.00003e-05
1.00003e-05
1.00003e-05
1.00004e-05
1.00004e-05
1.00004e-05
1.00004e-05
1.00004e-05
1.00004e-05
1.00003e-05
1.00002e-05
1.00002e-05
1.00002e-05
1.00002e-05
1.00002e-05
1.00002e-05
1.00001e-05
1e-05
9.99991e-06
9.99984e-06
9.99984e-06
9.99993e-06
1.00001e-05
1.00002e-05
1.00004e-05
1.00005e-05
1.00005e-05
1.00004e-05
1.00002e-05
1e-05
9.99998e-06
1e-05
1.00002e-05
1.00004e-05
1.00005e-05
1.00005e-05
1.00004e-05
1.00003e-05
1.00003e-05
1.00003e-05
1.00003e-05
1.00004e-05
1.00003e-05
1.00002e-05
9.99999e-06
9.99988e-06
9.99989e-06
9.99998e-06
1.00001e-05
1.00003e-05
1.00005e-05
1.00005e-05
1.00006e-05
1.00006e-05
1.00006e-05
1.00005e-05
1.00005e-05
1.00005e-05
1.00005e-05
1.00004e-05
1.00004e-05
1.00003e-05
1.00003e-05
1.00002e-05
1.00002e-05
1.00002e-05
1.00003e-05
1.00003e-05
1.00003e-05
1.00003e-05
1.00004e-05
1.00005e-05
1.00006e-05
1.00006e-05
1.00005e-05
1.00003e-05
1.00001e-05
9.99995e-06
9.9999e-06
9.99991e-06
1e-05
1.00001e-05
1.00002e-05
1.00002e-05
1.00001e-05
1.00001e-05
1.00002e-05
1.00003e-05
1.00004e-05
1.00005e-05
1.00005e-05
1.00004e-05
1.00003e-05
1.00003e-05
1.00003e-05
1.00003e-05
1.00004e-05
1.00004e-05
1.00004e-05
1.00004e-05
1.00003e-05
1.00003e-05
1.00004e-05
1.00005e-05
1.00005e-05
1.00006e-05
1.00007e-05
1.00006e-05
1.00005e-05
1.00005e-05
1.00005e-05
1.00004e-05
1.00004e-05
1.00004e-05
1.00004e-05
1.00003e-05
1.00003e-05
1.00003e-05
1.00003e-05
1.00003e-05
1.00004e-05
1.00005e-05
1.00006e-05
1.00006e-05
1.00006e-05
1.00006e-05
1.00006e-05
1.00004e-05
1.00004e-05
1.00003e-05
1.00003e-05
1.00003e-05
1.00003e-05
1.00004e-05
1.00004e-05
1.00004e-05
1.00005e-05
1.00006e-05
1.00007e-05
1.00007e-05
1.00007e-05
1.00006e-05
1.00005e-05
1.00003e-05
1.00002e-05
1.00002e-05
1.00003e-05
1.00004e-05
1.00005e-05
1.00005e-05
1.00005e-05
1.00004e-05
1.00003e-05
1.00002e-05
1.00002e-05
1.00002e-05
1.00002e-05
1.00002e-05
1.00003e-05
1.00003e-05
1.00003e-05
1.00003e-05
1.00003e-05
1.00004e-05
1.00005e-05
1.00007e-05
1.00007e-05
1.00007e-05
1.00006e-05
1.00005e-05
1.00005e-05
1.00004e-05
1.00005e-05
1.00006e-05
1.00006e-05
1.00005e-05
1.00004e-05
1.00004e-05
1.00003e-05
1.00003e-05
1.00004e-05
1.00005e-05
1.00006e-05
1.00006e-05
1.00007e-05
1.00007e-05
1.00006e-05
1.00006e-05
1.00005e-05
1.00005e-05
1.00005e-05
1.00004e-05
1.00004e-05
1.00005e-05
1.00005e-05
1.00004e-05
1.00004e-05
1.00004e-05
1.00004e-05
1.00003e-05
1.00002e-05
1.00002e-05
1.00003e-05
1.00004e-05
1.00005e-05
1.00007e-05
1.00008e-05
1.00009e-05
1.00009e-05
1.00008e-05
1.00006e-05
1.00004e-05
1.00002e-05
1.00002e-05
1.00003e-05
1.00005e-05
1.00006e-05
1.00007e-05
1.00006e-05
1.00006e-05
1.00004e-05
1.00004e-05
1.00004e-05
1.00005e-05
1.00005e-05
1.00006e-05
1.00006e-05
1.00007e-05
1.00008e-05
1.00008e-05
1.00009e-05
1.0001e-05
1.00009e-05
1.00008e-05
1.00006e-05
1.00005e-05
1.00004e-05
1.00004e-05
1.00005e-05
1.00006e-05
1.00006e-05
1.00005e-05
1.00004e-05
1.00004e-05
1.00004e-05
1.00005e-05
1.00007e-05
1.00009e-05
1.00009e-05
1.00008e-05
1.00007e-05
1.00006e-05
1.00005e-05
1.00005e-05
1.00005e-05
1.00006e-05
1.00007e-05
1.00007e-05
1.00007e-05
1.00007e-05
1.00007e-05
1.00006e-05
1.00006e-05
1.00006e-05
1.00005e-05
1.00004e-05
1.00004e-05
1.00004e-05
1.00005e-05
1.00005e-05
1.00006e-05
1.00006e-05
1.00006e-05
1.00006e-05
1.00006e-05
1.00006e-05
1.00007e-05
1.00007e-05
1.00008e-05
1.00008e-05
1.00007e-05
1.00006e-05
1.00006e-05
1.00006e-05
1.00006e-05
1.00007e-05
1.00007e-05
1.00008e-05
1.00008e-05
1.00007e-05
1.00006e-05
1.00006e-05
1.00005e-05
1.00004e-05
1.00004e-05
1.00005e-05
1.00005e-05
1.00006e-05
1.00006e-05
1.00006e-05
1.00006e-05
1.00006e-05
1.00006e-05
1.00007e-05
1.00007e-05
1.00007e-05
1.00007e-05
1.00007e-05
1.00006e-05
1.00006e-05
1.00006e-05
1.00007e-05
1.00007e-05
1.00008e-05
1.00008e-05
1.00008e-05
1.00007e-05
1.00006e-05
1.00005e-05
1.00006e-05
1.00006e-05
1.00006e-05
1.00007e-05
1.00007e-05
1.00007e-05
1.00006e-05
1.00005e-05
1.00005e-05
1.00006e-05
1.00006e-05
1.00007e-05
1.00008e-05
1.00007e-05
1.00006e-05
1.00005e-05
1.00005e-05
1.00005e-05
1.00006e-05
1.00007e-05
1.00008e-05
1.00008e-05
1.00007e-05
1.00007e-05
1.00006e-05
1.00006e-05
1.00006e-05
1.00006e-05
1.00006e-05
1.00006e-05
1.00006e-05
1.00007e-05
1.00008e-05
1.00008e-05
1.00008e-05
1.00008e-05
1.00007e-05
1.00006e-05
1.00005e-05
1.00005e-05
1.00006e-05
1.00006e-05
1.00007e-05
1.00008e-05
1.00008e-05
1.00007e-05
1.00006e-05
1.00005e-05
1.00005e-05
1.00005e-05
1.00006e-05
1.00007e-05
1.00007e-05
1.00006e-05
1.00005e-05
1.00005e-05
1.00005e-05
1.00006e-05
1.00006e-05
1.00007e-05
1.00007e-05
1.00007e-05
1.00006e-05
1.00006e-05
1.00006e-05
1.00006e-05
1.00006e-05
1.00006e-05
1.00005e-05
1.00005e-05
1.00005e-05
1.00005e-05
1.00005e-05
1.00006e-05
1.00006e-05
1.00007e-05
1.00007e-05
1.00006e-05
1.00005e-05
1.00005e-05
1.00004e-05
1.00004e-05
1.00005e-05
1.00006e-05
1.00005e-05
1.00005e-05
1.00004e-05
1.00003e-05
1.00003e-05
1.00003e-05
1.00004e-05
1.00005e-05
1.00007e-05
1.00008e-05
1.00009e-05
1.00008e-05
1.00007e-05
1.00007e-05
1.00006e-05
1.00006e-05
1.00005e-05
1.00006e-05
1.00005e-05
1.00005e-05
1.00005e-05
1.00005e-05
1.00004e-05
1.00004e-05
1.00004e-05
1.00005e-05
1.00005e-05
1.00005e-05
1.00005e-05
1.00005e-05
1.00005e-05
1.00005e-05
1.00005e-05
1.00005e-05
1.00005e-05
1.00005e-05
1.00005e-05
1.00006e-05
1.00005e-05
1.00004e-05
1.00004e-05
1.00005e-05
1.00005e-05
1.00005e-05
1.00005e-05
1.00005e-05
1.00005e-05
1.00004e-05
1.00004e-05
1.00005e-05
1.00004e-05
1.00004e-05
1.00004e-05
1.00004e-05
1.00005e-05
1.00005e-05
1.00005e-05
1.00005e-05
1.00005e-05
1.00004e-05
1.00004e-05
1.00004e-05
1.00004e-05
1.00004e-05
1.00004e-05
1.00005e-05
1.00005e-05
1.00004e-05
1.00004e-05
1.00004e-05
1.00004e-05
1.00003e-05
1.00004e-05
1.00004e-05
1.00004e-05
1.00004e-05
1.00004e-05
1.00005e-05
1.00005e-05
1.00005e-05
1.00005e-05
1.00005e-05
1.00005e-05
1.00004e-05
1.00003e-05
1.00003e-05
1.00002e-05
1.00003e-05
1.00003e-05
1.00004e-05
1.00004e-05
1.00004e-05
1.00004e-05
1.00003e-05
1.00003e-05
1.00003e-05
1.00003e-05
1.00003e-05
1.00003e-05
1.00003e-05
1.00004e-05
1.00004e-05
1.00003e-05
1.00003e-05
1.00004e-05
1.00005e-05
1.00005e-05
1.00005e-05
1.00005e-05
1.00005e-05
1.00004e-05
1.00003e-05
1.00002e-05
1.00003e-05
1.00003e-05
1.00003e-05
1.00004e-05
1.00004e-05
1.00004e-05
1.00003e-05
1.00002e-05
1.00002e-05
1.00002e-05
1.00002e-05
1.00002e-05
1.00003e-05
1.00003e-05
1.00003e-05
1.00004e-05
1.00004e-05
1.00004e-05
1.00003e-05
1.00003e-05
1.00002e-05
1.00002e-05
1.00002e-05
1.00002e-05
1.00003e-05
1.00003e-05
1.00003e-05
1.00004e-05
1.00004e-05
1.00003e-05
1.00003e-05
1.00002e-05
1.00002e-05
1.00002e-05
1.00003e-05
1.00003e-05
1.00003e-05
1.00002e-05
1.00002e-05
1.00002e-05
1.00002e-05
1.00002e-05
1.00003e-05
1.00003e-05
1.00003e-05
1.00002e-05
1.00002e-05
1.00001e-05
1.00001e-05
1.00002e-05
1.00002e-05
1.00002e-05
1.00002e-05
1.00002e-05
1.00002e-05
1.00002e-05
1.00002e-05
1.00002e-05
1.00002e-05
1.00001e-05
1.00001e-05
1.00001e-05
1.00001e-05
1.00001e-05
1.00002e-05
1.00002e-05
1.00002e-05
1.00002e-05
1.00001e-05
1.00001e-05
1.00001e-05
1.00001e-05
1.00002e-05
1.00002e-05
1.00002e-05
1.00002e-05
1.00002e-05
1.00002e-05
1.00001e-05
1.00001e-05
1e-05
1e-05
1.00001e-05
1.00001e-05
1.00001e-05
1.00001e-05
1.00001e-05
1.00001e-05
1.00001e-05
1.00002e-05
1.00001e-05
1.00001e-05
1.00001e-05
1.00001e-05
1.00001e-05
1.00001e-05
1.00001e-05
1.00001e-05
1e-05
1e-05
1e-05
1.00001e-05
1.00001e-05
1e-05
1e-05
1e-05
1e-05
1e-05
1.00001e-05
1.00001e-05
1.00001e-05
1e-05
1e-05
1e-05
1e-05
9.99999e-06
1e-05
1.00001e-05
1.00001e-05
1e-05
1e-05
1e-05
1e-05
1e-05
1e-05
1e-05
1e-05
9.99999e-06
9.99998e-06
1e-05
9.99999e-06
9.99999e-06
1e-05
1.00001e-05
1.00001e-05
1e-05
1e-05
1e-05
1e-05
9.99999e-06
1e-05
1e-05
1e-05
1e-05
1e-05
1e-05
1e-05
9.99998e-06
9.99997e-06
9.99998e-06
9.99996e-06
9.99993e-06
9.99994e-06
9.99998e-06
9.99999e-06
9.99999e-06
1e-05
1e-05
1e-05
1e-05
9.99999e-06
1e-05
9.99998e-06
9.99996e-06
9.99996e-06
9.99999e-06
9.99997e-06
9.99993e-06
9.99991e-06
9.99994e-06
9.99994e-06
9.99994e-06
9.99996e-06
9.99999e-06
9.99997e-06
9.99993e-06
9.99992e-06
9.99995e-06
9.99995e-06
9.99995e-06
9.99997e-06
9.99999e-06
9.99996e-06
9.99995e-06
9.99998e-06
9.99999e-06
9.99996e-06
9.99996e-06
9.99996e-06
9.99997e-06
9.99993e-06
9.9999e-06
9.99989e-06
9.99993e-06
9.99994e-06
9.99997e-06
9.99999e-06
1e-05
9.99996e-06
9.99994e-06
9.99994e-06
9.99997e-06
9.99996e-06
9.99995e-06
9.99991e-06
9.99992e-06
9.99989e-06
9.99991e-06
9.99992e-06
9.99994e-06
9.99992e-06
9.99993e-06
9.99995e-06
9.99998e-06
9.99997e-06
9.99999e-06
9.99992e-06
9.99988e-06
9.99984e-06
9.99985e-06
9.99987e-06
9.9999e-06
9.99991e-06
9.99997e-06
1e-05
1e-05
9.99995e-06
9.99991e-06
9.9999e-06
9.99992e-06
9.99992e-06
9.99997e-06
9.99999e-06
1e-05
9.99999e-06
9.99997e-06
9.99992e-06
9.99993e-06
9.99993e-06
9.99996e-06
9.99996e-06
9.99996e-06
9.99992e-06
9.99993e-06
9.99991e-06
9.99993e-06
9.99992e-06
9.99995e-06
9.99995e-06
9.99998e-06
9.99994e-06
9.99993e-06
9.99987e-06
9.99987e-06
9.99984e-06
9.99987e-06
9.99987e-06
9.99987e-06
9.99985e-06
9.99985e-06
9.99985e-06
9.99989e-06
9.99989e-06
9.99995e-06
9.99996e-06
9.99998e-06
9.99994e-06
9.9999e-06
9.99984e-06
9.99981e-06
9.99983e-06
9.9999e-06
9.99994e-06
9.99995e-06
9.99992e-06
9.99989e-06
9.99985e-06
9.99985e-06
9.99984e-06
9.99991e-06
9.99994e-06
9.99996e-06
9.99992e-06
9.99987e-06
9.99984e-06
9.99985e-06
9.99988e-06
9.99987e-06
9.99986e-06
9.99987e-06
9.99991e-06
9.99991e-06
9.9999e-06
9.9999e-06
9.99991e-06
9.99989e-06
9.99987e-06
9.99987e-06
9.9999e-06
9.99988e-06
9.99985e-06
9.99985e-06
9.99988e-06
9.99989e-06
9.99988e-06
9.99989e-06
9.99992e-06
9.99991e-06
9.99989e-06
9.99988e-06
9.99989e-06
9.99988e-06
9.99986e-06
9.99988e-06
9.99992e-06
9.99992e-06
9.9999e-06
9.99989e-06
9.99989e-06
9.99987e-06
9.99986e-06
9.99988e-06
9.99993e-06
9.99992e-06
9.99989e-06
9.99986e-06
9.99987e-06
9.99985e-06
9.99983e-06
9.99985e-06
9.99989e-06
9.99989e-06
9.99988e-06
9.99988e-06
9.9999e-06
9.99989e-06
9.99986e-06
9.99986e-06
9.99989e-06
9.99989e-06
9.99988e-06
9.99989e-06
9.99991e-06
9.99988e-06
9.99983e-06
9.99983e-06
9.99987e-06
9.99989e-06
9.9999e-06
9.99993e-06
9.99996e-06
9.99994e-06
9.99991e-06
9.99992e-06
9.99994e-06
9.99989e-06
9.99981e-06
9.9998e-06
9.99985e-06
9.99987e-06
9.99989e-06
9.99992e-06
9.99995e-06
9.99992e-06
9.99987e-06
9.99986e-06
9.9999e-06
9.99991e-06
9.99992e-06
9.99995e-06
9.99997e-06
9.9999e-06
9.99982e-06
9.9998e-06
9.99985e-06
9.99987e-06
9.99988e-06
9.99989e-06
9.99993e-06
9.99995e-06
9.99993e-06
9.99993e-06
9.99997e-06
9.99996e-06
9.99997e-06
9.99993e-06
9.99994e-06
9.99991e-06
9.99991e-06
9.99987e-06
9.99989e-06
9.99987e-06
9.99988e-06
9.9999e-06
9.99996e-06
9.99995e-06
9.99992e-06
9.99991e-06
9.99994e-06
9.99993e-06
9.99991e-06
9.9999e-06
9.99994e-06
9.99993e-06
9.99992e-06
9.99991e-06
9.99994e-06
9.99994e-06
9.99995e-06
9.99993e-06
9.99994e-06
9.9999e-06
9.9999e-06
9.99989e-06
9.99994e-06
9.99994e-06
9.99994e-06
9.99995e-06
1e-05
9.99999e-06
9.99997e-06
9.99993e-06
9.99995e-06
9.99995e-06
9.99996e-06
9.99991e-06
9.9999e-06
9.9999e-06
9.99993e-06
9.99995e-06
9.99999e-06
9.99997e-06
9.99994e-06
9.99993e-06
9.99997e-06
9.99998e-06
1e-05
1e-05
1e-05
1e-05
1e-05
9.99997e-06
9.99997e-06
9.99995e-06
9.99996e-06
9.99995e-06
9.99997e-06
9.99997e-06
1e-05
1e-05
1e-05
1e-05
1e-05
9.99995e-06
9.99993e-06
9.99989e-06
9.99991e-06
9.99994e-06
9.99997e-06
9.99995e-06
9.99995e-06
9.99996e-06
9.99999e-06
9.99996e-06
9.99995e-06
9.99997e-06
1e-05
1e-05
1e-05
1e-05
1e-05
9.99995e-06
9.99994e-06
9.99993e-06
9.99993e-06
9.9999e-06
9.99993e-06
9.99996e-06
1e-05
1e-05
1e-05
9.99999e-06
9.99998e-06
9.99997e-06
9.99991e-06
9.99986e-06
9.99987e-06
9.99993e-06
9.99997e-06
9.99998e-06
9.99998e-06
9.99999e-06
9.99996e-06
9.99991e-06
9.9999e-06
9.99991e-06
9.99991e-06
9.99991e-06
9.99994e-06
9.99998e-06
9.99997e-06
9.99993e-06
9.99991e-06
9.99992e-06
9.99991e-06
9.99991e-06
9.99993e-06
9.99998e-06
9.99999e-06
9.99997e-06
9.99996e-06
9.99998e-06
9.99996e-06
9.99994e-06
9.99994e-06
9.99997e-06
9.99997e-06
9.99996e-06
9.99996e-06
9.99998e-06
9.99996e-06
9.99992e-06
9.99992e-06
9.99994e-06
9.99995e-06
9.99995e-06
9.99997e-06
1e-05
1e-05
9.99998e-06
9.99996e-06
9.99997e-06
9.99997e-06
9.99996e-06
9.99997e-06
9.99998e-06
9.99993e-06
9.99987e-06
9.99987e-06
9.99992e-06
9.99993e-06
9.9999e-06
9.99989e-06
9.99992e-06
9.99993e-06
9.99994e-06
9.99997e-06
1e-05
1e-05
9.99999e-06
9.99996e-06
9.99996e-06
9.99994e-06
9.99992e-06
9.99994e-06
9.99999e-06
1e-05
9.99997e-06
9.99997e-06
9.99998e-06
9.99996e-06
9.99993e-06
9.99993e-06
9.99996e-06
9.99995e-06
9.99993e-06
9.99993e-06
9.99995e-06
9.99994e-06
9.99993e-06
9.99995e-06
1e-05
1e-05
1e-05
1e-05
1e-05
1e-05
9.99999e-06
9.99997e-06
9.99999e-06
9.99998e-06
9.99996e-06
9.9999e-06
9.9999e-06
9.99993e-06
9.99998e-06
1e-05
1.00001e-05
1.00001e-05
1.00001e-05
1.00001e-05
1.00001e-05
1e-05
9.99999e-06
9.99995e-06
9.99999e-06
1e-05
1.00001e-05
1.00001e-05
1.00001e-05
1.00001e-05
1e-05
9.99997e-06
9.99997e-06
9.99996e-06
9.99997e-06
9.99996e-06
9.99999e-06
1e-05
1e-05
1e-05
1e-05
1e-05
1e-05
9.99996e-06
9.99998e-06
9.99999e-06
1e-05
1e-05
1.00001e-05
1.00001e-05
1.00002e-05
1.00001e-05
1.00001e-05
1.00001e-05
1.00001e-05
1.00001e-05
1.00001e-05
1.00001e-05
1.00001e-05
1e-05
1.00001e-05
1.00001e-05
1e-05
9.99999e-06
9.99998e-06
9.99997e-06
1e-05
1e-05
1.00001e-05
1.00001e-05
1.00001e-05
1e-05
9.99994e-06
9.99988e-06
9.99988e-06
9.99991e-06
9.99998e-06
1e-05
1.00001e-05
1.00001e-05
1.00001e-05
1.00001e-05
1e-05
1e-05
1e-05
9.99998e-06
9.99992e-06
9.99986e-06
9.99983e-06
9.99979e-06
9.99983e-06
9.99992e-06
1e-05
1.00001e-05
1.00001e-05
1.00001e-05
1.00001e-05
1.00001e-05
9.99995e-06
9.99988e-06
9.99985e-06
9.99991e-06
9.99998e-06
1e-05
1e-05
1.00001e-05
1.00001e-05
1e-05
1e-05
1e-05
9.99998e-06
9.99992e-06
9.99992e-06
9.99996e-06
9.99997e-06
9.99996e-06
9.99998e-06
1e-05
1e-05
9.99998e-06
9.99997e-06
9.99997e-06
9.99993e-06
9.99989e-06
9.9999e-06
9.99995e-06
1e-05
1e-05
1e-05
1.00001e-05
1e-05
1e-05
9.99998e-06
9.99999e-06
9.99997e-06
9.99994e-06
9.99994e-06
9.99997e-06
9.99997e-06
9.99995e-06
9.99995e-06
9.99998e-06
9.99998e-06
9.99996e-06
9.99995e-06
9.99997e-06
9.99996e-06
9.99994e-06
9.99994e-06
9.99998e-06
9.99998e-06
9.99995e-06
9.99994e-06
9.99995e-06
9.99991e-06
9.99986e-06
9.99984e-06
9.99988e-06
9.9999e-06
9.99992e-06
9.99998e-06
1e-05
1.00001e-05
1e-05
1e-05
1e-05
1e-05
9.99996e-06
9.99992e-06
9.99991e-06
9.99987e-06
9.99982e-06
9.99982e-06
9.99988e-06
9.99993e-06
9.99996e-06
1e-05
1e-05
9.99993e-06
9.99979e-06
9.99965e-06
9.99958e-06
9.9996e-06
9.99987e-06
1.00005e-05
1.00017e-05
1.00028e-05
1.00036e-05
1.00033e-05
1.00011e-05
9.99702e-06
9.99129e-06
9.98518e-06
9.98032e-06
9.97944e-06
9.98464e-06
9.99684e-06
1.00184e-05
1.00472e-05
1.00817e-05
1.01227e-05
1.01585e-05
1.01782e-05
1.01594e-05
1.00787e-05
9.93543e-06
9.71291e-06
9.46066e-06
9.18966e-06
8.99148e-06
8.89137e-06
8.97209e-06
9.25991e-06
9.73399e-06
1.04374e-05
1.13404e-05
1.23742e-05
1.34196e-05
1.46007e-05
1.58268e-05
1.70627e-05
1.81913e-05
1.93428e-05
2.0441e-05
2.14467e-05
2.22772e-05
2.30427e-05
2.37146e-05
2.42356e-05
2.45927e-05
2.48496e-05
2.50338e-05
2.50838e-05
2.50315e-05
2.48947e-05
2.47148e-05
2.4449e-05
2.42007e-05
2.39753e-05
2.38037e-05
2.35256e-05
2.31266e-05
2.25701e-05
2.18339e-05
2.08987e-05
1.99037e-05
1.88386e-05
1.78643e-05
1.6856e-05
1.58812e-05
1.48832e-05
1.37326e-05
1.25251e-05
1.14263e-05
1.0431e-05
9.58616e-06
8.60958e-06
7.46688e-06
8.08581e-06
1.40063e-05
2.25098e-05
3.00225e-05
3.51599e-05
3.61463e-05
3.2224e-05
2.58826e-05
2.41337e-05
3.82741e-05
5.07885e-05
5.94509e-05
6.64321e-05
7.11548e-05
7.33924e-05
7.39692e-05
7.39789e-05
7.38067e-05
7.31865e-05
7.22946e-05
7.1255e-05
7.01995e-05
6.93881e-05
6.85643e-05
6.7882e-05
6.73297e-05
6.7055e-05
6.69511e-05
6.69071e-05
6.70204e-05
6.72217e-05
6.75212e-05
6.78367e-05
6.81381e-05
6.83663e-05
6.85539e-05
6.86962e-05
6.87991e-05
6.88627e-05
6.89462e-05
6.89853e-05
6.8984e-05
6.89768e-05
6.89567e-05
6.88964e-05
6.88408e-05
6.88086e-05
6.87792e-05
6.87379e-05
6.87202e-05
6.87404e-05
6.8768e-05
6.87722e-05
6.87835e-05
6.88158e-05
6.88404e-05
6.88256e-05
6.88118e-05
6.88171e-05
6.88172e-05
6.87823e-05
6.87535e-05
6.87486e-05
6.87437e-05
6.87088e-05
6.86851e-05
6.869e-05
6.86987e-05
6.86816e-05
6.86779e-05
6.87015e-05
6.87225e-05
6.87093e-05
6.86989e-05
6.87072e-05
6.8708e-05
6.86727e-05
6.86429e-05
6.86365e-05
6.86317e-05
6.86003e-05
6.85842e-05
6.86028e-05
6.86308e-05
6.86281e-05
6.86415e-05
6.86851e-05
6.87159e-05
6.86804e-05
6.86393e-05
6.86148e-05
6.8588e-05
6.8539e-05
6.85093e-05
6.8517e-05
6.8543e-05
6.85591e-05
6.85991e-05
6.86769e-05
6.87598e-05
6.88086e-05
6.88558e-05
6.891e-05
6.89338e-05
6.88922e-05
6.88274e-05
6.87609e-05
6.86815e-05
6.85753e-05
6.84978e-05
6.84806e-05
6.8512e-05
6.85614e-05
6.86607e-05
6.8806e-05
6.89329e-05
6.89863e-05
6.89875e-05
6.89378e-05
6.8809e-05
6.86022e-05
6.84112e-05
6.8311e-05
6.83423e-05
6.85005e-05
6.88232e-05
6.92841e-05
6.97343e-05
7.00473e-05
7.01924e-05
7.00943e-05
6.96187e-05
6.87635e-05
6.77293e-05
6.67478e-05
6.60949e-05
6.60227e-05
6.6921e-05
6.88556e-05
7.12029e-05
7.31521e-05
7.419e-05
7.40008e-05
7.12634e-05
6.31951e-05
4.73643e-05
2.92294e-05
2.35251e-05
2.45419e-05
2.73002e-05
2.82154e-05
2.86114e-05
2.90022e-05
2.85493e-05
2.71772e-05
2.56067e-05
2.44834e-05
2.36665e-05
2.28336e-05
2.20407e-05
2.15137e-05
2.10403e-05
2.02252e-05
1.8925e-05
1.74957e-05
1.5931e-05
1.44441e-05
1.3061e-05
1.22061e-05
1.1962e-05
1.23332e-05
1.30287e-05
1.37761e-05
1.45217e-05
1.51623e-05
1.56669e-05
1.60331e-05
1.63543e-05
1.66795e-05
1.69458e-05
1.71645e-05
1.737e-05
1.75946e-05
1.77544e-05
1.78138e-05
1.80251e-05
1.79523e-05
1.79365e-05
1.77967e-05
1.77636e-05
1.74783e-05
1.72483e-05
1.68889e-05
1.64472e-05
1.59049e-05
1.53004e-05
1.4619e-05
1.37784e-05
1.30928e-05
1.23757e-05
1.16571e-05
1.0994e-05
1.03795e-05
9.86596e-06
9.47546e-06
9.14875e-06
8.94554e-06
8.83643e-06
8.81914e-06
8.88399e-06
9.03514e-06
9.24895e-06
9.48462e-06
9.72608e-06
9.93637e-06
1.00819e-05
1.01685e-05
1.01956e-05
1.01736e-05
1.01233e-05
1.00668e-05
1.00157e-05
9.98132e-06
9.96632e-06
9.96564e-06
9.97371e-06
9.98475e-06
9.99467e-06
1.00008e-05
1.0004e-05
1.00047e-05
1.00041e-05
1.00029e-05
1.00017e-05
1.00006e-05
9.99988e-06
9.9996e-06
9.99961e-06
9.99975e-06
9.99987e-06
9.99994e-06
9.99997e-06
9.99996e-06
9.99995e-06
9.99998e-06
1e-05
1.00001e-05
1.00001e-05
1.00001e-05
1.00001e-05
1.00001e-05
1e-05
1e-05
1e-05
9.99999e-06
9.99997e-06
9.99996e-06
1e-05
1e-05
1e-05
1e-05
1e-05
1e-05
1e-05
1.00001e-05
1.00002e-05
1.00002e-05
1.00002e-05
1.00001e-05
1.00001e-05
9.99998e-06
9.99994e-06
9.99999e-06
1.00001e-05
1.00002e-05
1.00002e-05
1.00002e-05
1.00002e-05
1.00001e-05
9.99998e-06
9.99995e-06
1e-05
1.00001e-05
1.00001e-05
1.00002e-05
1.00003e-05
1.00003e-05
1.00002e-05
1.00002e-05
1.00001e-05
1e-05
9.99994e-06
9.99992e-06
9.99993e-06
9.99992e-06
9.99989e-06
9.9999e-06
9.99997e-06
1e-05
1e-05
1e-05
1.00001e-05
1e-05
1e-05
1e-05
1.00001e-05
1.00002e-05
1.00002e-05
1.00003e-05
1.00003e-05
1.00003e-05
1.00002e-05
1.00002e-05
1.00001e-05
1.00001e-05
1e-05
1e-05
1.00001e-05
1.00002e-05
1.00002e-05
1.00001e-05
1.00001e-05
9.99999e-06
9.99985e-06
9.99975e-06
9.99977e-06
9.99985e-06
9.99996e-06
1.00001e-05
1.00002e-05
1.00002e-05
1.00001e-05
9.9999e-06
9.9998e-06
9.9998e-06
9.99995e-06
1.00002e-05
1.00004e-05
1.00004e-05
1.00003e-05
1.00002e-05
1.00001e-05
1.00001e-05
1.00001e-05
1e-05
1e-05
9.99998e-06
9.99995e-06
9.9999e-06
9.99989e-06
9.99988e-06
9.99991e-06
9.99993e-06
9.99997e-06
9.99995e-06
9.99995e-06
1e-05
1.00001e-05
1.00001e-05
1.00002e-05
1.00002e-05
1.00002e-05
1.00001e-05
1e-05
9.99994e-06
9.99994e-06
9.99997e-06
1.00001e-05
1.00002e-05
1.00003e-05
1.00004e-05
1.00003e-05
1.00001e-05
9.99992e-06
9.99974e-06
9.99972e-06
9.99975e-06
9.99981e-06
9.99978e-06
9.99975e-06
9.99971e-06
9.99975e-06
9.99985e-06
1e-05
1.00003e-05
1.00004e-05
1.00006e-05
1.00006e-05
1.00006e-05
1.00004e-05
1.00002e-05
9.99995e-06
9.99976e-06
9.99966e-06
9.99967e-06
9.99984e-06
1e-05
1.00002e-05
1.00003e-05
1.00003e-05
1.00002e-05
1.00001e-05
9.99993e-06
9.99982e-06
9.99983e-06
9.99988e-06
9.99998e-06
1e-05
1e-05
1e-05
9.99999e-06
1.00001e-05
1.00001e-05
1e-05
1e-05
9.99995e-06
9.99993e-06
9.99989e-06
9.99987e-06
9.99988e-06
9.99995e-06
1e-05
1.00001e-05
1.00001e-05
1.00002e-05
1.00001e-05
1e-05
9.99994e-06
9.99987e-06
9.99982e-06
9.99986e-06
9.99994e-06
1.00001e-05
1.00001e-05
1.00001e-05
1e-05
9.99996e-06
9.9999e-06
9.99992e-06
9.99998e-06
1.00001e-05
1.00001e-05
9.99998e-06
9.99984e-06
9.99977e-06
9.99976e-06
9.99979e-06
9.99984e-06
9.99991e-06
9.99994e-06
9.99994e-06
9.99991e-06
9.9999e-06
9.99989e-06
9.99989e-06
9.99992e-06
9.99998e-06
1e-05
9.99998e-06
9.99995e-06
9.99996e-06
9.99999e-06
1e-05
1e-05
1e-05
9.99991e-06
9.99981e-06
9.99975e-06
9.99977e-06
9.99982e-06
9.99988e-06
9.99994e-06
1e-05
1.00001e-05
1e-05
9.99997e-06
9.99991e-06
9.9999e-06
1e-05
1.00001e-05
1.00001e-05
1.00001e-05
9.99988e-06
9.99979e-06
9.99979e-06
9.99987e-06
9.99994e-06
1e-05
1.00001e-05
1.00002e-05
1.00001e-05
1.00001e-05
1.00001e-05
1.00001e-05
1e-05
9.99993e-06
9.99991e-06
9.99988e-06
9.99985e-06
9.99987e-06
9.99989e-06
9.99993e-06
9.99998e-06
1.00001e-05
1.00001e-05
1.00002e-05
1.00001e-05
1.00001e-05
1.00001e-05
1.00001e-05
1e-05
1e-05
1e-05
1e-05
9.99998e-06
9.99997e-06
1e-05
1.00001e-05
1.00001e-05
1.00001e-05
9.99997e-06
9.99988e-06
9.9998e-06
9.99985e-06
9.99995e-06
1.00001e-05
1.00002e-05
1.00002e-05
1.00002e-05
1.00001e-05
9.99998e-06
9.99992e-06
9.99995e-06
1e-05
1.00001e-05
1.00001e-05
1.00001e-05
1e-05
9.99996e-06
9.99997e-06
9.99997e-06
9.99997e-06
9.99996e-06
9.99998e-06
1e-05
1e-05
1e-05
1e-05
1e-05
1e-05
1e-05
1e-05
1.00001e-05
1.00001e-05
1e-05
9.99993e-06
9.99989e-06
9.99991e-06
9.99994e-06
1e-05
1.00001e-05
1.00002e-05
1.00003e-05
1.00003e-05
1.00002e-05
1.00003e-05
1.00005e-05
1.00004e-05
9.99845e-06
9.99233e-06
9.98488e-06
9.98885e-06
1.00247e-05
1.01026e-05
1.01635e-05
1.0093e-05
9.79882e-06
9.3091e-06
8.86028e-06
8.91356e-06
9.77257e-06
1.13983e-05
1.36121e-05
1.62798e-05
1.92729e-05
2.22135e-05
2.5417e-05
2.87971e-05
3.22282e-05
3.54834e-05
3.89141e-05
4.29182e-05
4.63346e-05
4.95196e-05
5.23351e-05
5.53893e-05
5.82924e-05
6.08514e-05
6.33254e-05
6.55264e-05
6.74285e-05
6.88921e-05
7.01533e-05
7.1225e-05
7.19517e-05
7.25626e-05
7.27646e-05
7.28587e-05
7.27758e-05
7.26262e-05
7.24539e-05
7.22458e-05
7.18194e-05
7.12345e-05
7.03623e-05
6.9436e-05
6.84241e-05
6.73344e-05
6.60947e-05
6.4994e-05
6.41246e-05
6.33705e-05
6.24953e-05
6.15937e-05
6.06246e-05
5.95881e-05
5.87886e-05
5.83894e-05
5.81987e-05
5.83124e-05
5.88823e-05
5.94148e-05
5.98793e-05
6.02812e-05
6.07417e-05
6.09055e-05
6.1199e-05
6.1507e-05
6.21297e-05
6.26537e-05
6.35608e-05
6.44656e-05
6.58027e-05
6.72936e-05
6.95192e-05
7.20705e-05
7.53477e-05
7.91207e-05
8.39772e-05
8.90227e-05
9.44777e-05
9.97393e-05
0.000105184
0.000109847
0.000113155
0.000114703
0.000113898
0.000111821
0.00010728
0.000101764
9.61305e-05
9.01728e-05
8.35257e-05
7.89379e-05
8.74164e-05
0.000116949
0.000179852
0.000248936
0.000288519
0.000309364
0.00032592
0.000359374
0.000355584
0.000362945
0.000338164
0.000368087
0.000348386
0.000361704
0.000352884
0.000342842
0.000340676
0.000345511
0.000354301
0.000359808
0.000354565
0.000347867
0.000354381
0.000337641
0.000354374
0.000390614
0.000339922
0.000338301
0.000330682
0.000342425
0.000336008
0.000346605
0.000366946
0.000375032
0.000342574
0.000326579
0.000350271
0.00034458
0.000336236
0.000335068
0.000336805
0.000361601
0.000369787
0.000333619
0.000346814
0.000335271
0.000328536
0.000332711
0.000347595
0.000348214
0.000352072
0.000345361
0.000333888
0.000339627
0.000360846
0.000340513
0.000332191
0.00034528
0.000329904
0.00033499
0.000342981
0.000338167
0.000334767
0.000334532
0.000341175
0.000334059
0.00035087
0.00033256
0.000363231
0.00035952
0.000344226
0.00033475
0.000338739
0.000361737
0.000349018
0.000359188
0.000347079
0.000343529
0.000337152
0.000310937
0.000352753
0.00034787
0.00035975
0.000346204
0.000359327
0.000375696
0.000357009
0.000337571
0.000338627
0.00033435
0.000348383
0.000333511
0.000337938
0.000335918
0.000334569
0.000322387
0.000336169
0.000332169
0.00033502
0.000362456
0.000345501
0.000354399
0.000342951
0.000327179
0.00033872
0.00034534
0.000338807
0.000387785
0.000335111
0.000340587
0.000345635
0.000338888
0.000331167
0.000336087
0.000345288
0.000395057
0.000375461
0.000345207
0.000347701
0.000332609
0.000350036
0.000339368
0.000337425
0.000334936
0.000359211
0.000362018
0.000349029
0.000377473
0.000353058
0.000345537
0.000364858
0.000352051
0.000331364
0.000308438
0.000331277
0.000324178
0.000304358
0.000273722
0.00022239
0.000133906
6.29568e-05
4.78426e-05
5.01023e-05
6.08586e-05
7.29091e-05
8.6794e-05
9.59562e-05
0.000104216
0.000108552
0.000111593
0.000111328
0.000110032
0.000107729
0.000105426
0.00010225
9.83583e-05
9.51896e-05
9.20531e-05
8.85311e-05
8.46078e-05
8.11668e-05
7.76735e-05
7.4893e-05
7.18427e-05
6.95613e-05
6.7036e-05
6.52349e-05
6.30572e-05
6.16387e-05
6.0281e-05
5.97247e-05
5.89579e-05
5.87431e-05
5.84973e-05
5.86884e-05
5.88929e-05
5.9356e-05
5.98797e-05
6.05249e-05
6.131e-05
6.20124e-05
6.29533e-05
6.41193e-05
6.53283e-05
6.6578e-05
6.81126e-05
6.95779e-05
7.11106e-05
7.23349e-05
7.33083e-05
7.40889e-05
7.50846e-05
7.60789e-05
7.67865e-05
7.70119e-05
7.69106e-05
7.64082e-05
7.54665e-05
7.40824e-05
7.23606e-05
7.04161e-05
6.80458e-05
6.5393e-05
6.26842e-05
6.02398e-05
5.80356e-05
5.58602e-05