/*--------------------------------*- C++ -*----------------------------------*\
| =========                 |                                                 |
| \\      /  F ield         | foam-extend: Open Source CFD                    |
|  \\    /   O peration     | Version:     4.0                                |
|   \\  /    A nd           | Web:         http://www.foam-extend.org         |
|    \\/     M anipulation  |                                                 |
\*---------------------------------------------------------------------------*/
FoamFile
{
    version     2.0;
    format      ascii;
    class       volScalarField;
    location    "0.025";
    object      h;
}
// * * * * * * * * * * * * * * * * * * * * * * * * * * * * * * * * * * * * * //

dimensions      [0 1 0 0 0 0 0];

internalField   nonuniform List<scalar> 
176451
(
1.0001e-05
9.99589e-06
9.9946e-06
1.00003e-05
1.00029e-05
1.00023e-05
9.99838e-06
9.99765e-06
1.00011e-05
1.00038e-05
1.00029e-05
1.00066e-05
1.00008e-05
9.99765e-06
9.99736e-06
9.99783e-06
1.00024e-05
1.00021e-05
1.00044e-05
1.0001e-05
9.99951e-06
1.00006e-05
1.00008e-05
1.00032e-05
1.00029e-05
1.0001e-05
1.00001e-05
9.9978e-06
9.99807e-06
1.00002e-05
9.99993e-06
1.00006e-05
9.99851e-06
9.99852e-06
9.99912e-06
1.0006e-05
1.00048e-05
1.00021e-05
9.99526e-06
9.99944e-06
9.99716e-06
1.00027e-05
9.99793e-06
1.00003e-05
1.00027e-05
9.99957e-06
1.00006e-05
1.00017e-05
1.00039e-05
1.00016e-05
1.00033e-05
9.99515e-06
9.99791e-06
9.999e-06
1.00009e-05
1.00037e-05
1.00005e-05
9.99954e-06
9.99821e-06
1.00008e-05
9.99965e-06
9.99682e-06
9.99597e-06
1.00014e-05
1.00002e-05
1.00049e-05
1.00009e-05
9.99993e-06
1e-05
9.99856e-06
1.00004e-05
1.00024e-05
1.00012e-05
1.00024e-05
1.00036e-05
1.00009e-05
1.00009e-05
9.99957e-06
9.99602e-06
9.9955e-06
9.99859e-06
1.00003e-05
1.00005e-05
9.99606e-06
9.99871e-06
1.00006e-05
1.00023e-05
1.00003e-05
1.00016e-05
9.99963e-06
1.00058e-05
9.99807e-06
1.00052e-05
9.99869e-06
9.9977e-06
9.99694e-06
9.99783e-06
1.00008e-05
1.00054e-05
9.99832e-06
1.00009e-05
9.99841e-06
1.00038e-05
9.99751e-06
1.00022e-05
9.99813e-06
1.00032e-05
1.00025e-05
1.00024e-05
1.00037e-05
1.00048e-05
1.00016e-05
1.00043e-05
1.00026e-05
1.00033e-05
1.00052e-05
1.00052e-05
1.00006e-05
1.00033e-05
1.00002e-05
9.99902e-06
9.99295e-06
9.99935e-06
9.99694e-06
9.9996e-06
1.00009e-05
9.99754e-06
1.00035e-05
1.00003e-05
1.00023e-05
1.00022e-05
1.00036e-05
1.00015e-05
9.99954e-06
1.00022e-05
9.99722e-06
1.00013e-05
9.99783e-06
1.0001e-05
9.99942e-06
1.00006e-05
9.99944e-06
1.0002e-05
1.00019e-05
9.998e-06
1.00008e-05
1.00029e-05
1.00014e-05
1.00011e-05
9.99902e-06
1.0006e-05
1.00001e-05
9.99781e-06
1.00011e-05
9.99786e-06
1.00023e-05
9.9985e-06
1.0002e-05
1.00032e-05
9.99999e-06
1.00003e-05
9.9988e-06
9.99907e-06
1.00008e-05
1.00008e-05
1.00006e-05
1.00012e-05
1.00012e-05
9.99819e-06
9.99958e-06
9.99816e-06
1.00007e-05
1.00044e-05
9.99593e-06
9.9994e-06
9.99684e-06
9.99966e-06
9.99726e-06
1.00025e-05
1.00029e-05
1.00001e-05
9.99792e-06
9.99716e-06
9.9999e-06
9.99719e-06
1.00007e-05
1.00037e-05
1.00069e-05
1.0004e-05
9.99926e-06
9.99456e-06
9.98641e-06
9.97837e-06
9.97178e-06
9.96765e-06
9.96682e-06
9.96899e-06
9.97321e-06
9.97851e-06
9.98368e-06
9.98818e-06
9.99156e-06
9.99398e-06
9.99563e-06
9.99687e-06
9.99782e-06
9.99869e-06
9.99946e-06
1.00001e-05
1.00004e-05
1.00003e-05
9.99998e-06
9.99957e-06
9.99931e-06
9.99949e-06
1.00003e-05
1.00019e-05
1.0004e-05
1.00065e-05
1.00091e-05
1.00114e-05
1.00132e-05
1.00144e-05
1.00152e-05
1.00156e-05
1.00159e-05
1.00161e-05
1.00163e-05
1.00162e-05
1.00155e-05
1.00141e-05
1.0012e-05
1.00093e-05
1.00064e-05
1.00036e-05
1.00014e-05
9.99983e-06
9.99892e-06
9.99863e-06
9.99861e-06
9.99877e-06
9.9989e-06
9.99903e-06
9.99916e-06
9.99931e-06
9.9994e-06
9.99951e-06
9.99953e-06
9.99947e-06
9.9994e-06
9.99947e-06
9.99962e-06
9.99996e-06
1.00004e-05
1.00009e-05
1.00012e-05
1.00011e-05
1.00004e-05
9.99944e-06
9.99815e-06
9.99683e-06
9.99567e-06
9.99507e-06
9.99513e-06
9.99582e-06
9.9971e-06
9.99868e-06
1.00004e-05
1.00018e-05
1.00029e-05
1.00037e-05
1.00042e-05
1.00047e-05
1.00052e-05
1.00059e-05
1.00064e-05
1.00065e-05
1.00059e-05
1.00047e-05
1.0003e-05
1.00011e-05
9.99907e-06
9.99739e-06
9.99593e-06
9.99472e-06
9.99363e-06
9.99274e-06
9.99185e-06
9.99096e-06
9.99006e-06
9.98932e-06
9.98866e-06
9.98813e-06
9.98777e-06
9.98767e-06
9.98777e-06
9.98811e-06
9.98878e-06
9.9898e-06
9.99104e-06
9.99229e-06
9.99344e-06
9.99435e-06
9.99494e-06
9.99526e-06
9.99552e-06
9.99598e-06
9.99671e-06
9.99773e-06
9.99901e-06
1.00003e-05
1.00013e-05
1.00019e-05
1.00018e-05
1.00014e-05
1.00008e-05
1.00004e-05
1.00004e-05
1.00009e-05
1.00019e-05
1.0003e-05
1.00041e-05
1.00052e-05
1.0006e-05
1.00066e-05
1.00071e-05
1.00076e-05
1.0008e-05
1.00083e-05
1.00085e-05
1.00088e-05
1.0009e-05
1.00093e-05
1.00096e-05
1.00099e-05
1.00103e-05
1.00107e-05
1.00109e-05
1.0011e-05
1.00106e-05
1.00098e-05
1.00085e-05
1.00064e-05
1.00039e-05
1.0001e-05
9.99793e-06
9.99487e-06
9.99211e-06
9.98994e-06
9.98849e-06
9.98778e-06
9.98787e-06
9.9887e-06
9.99025e-06
9.99238e-06
9.99512e-06
9.99831e-06
1.00018e-05
1.00049e-05
1.00071e-05
1.0008e-05
1.00072e-05
1.0005e-05
1.0002e-05
9.99883e-06
9.99629e-06
9.9948e-06
9.99454e-06
9.99532e-06
9.99676e-06
9.99832e-06
9.99964e-06
1.00005e-05
1.00009e-05
1.00009e-05
1.00007e-05
1.00007e-05
1.00009e-05
1.00013e-05
1.0002e-05
1.00029e-05
1.00038e-05
1.00046e-05
1.00052e-05
1.00055e-05
1.00055e-05
1.00051e-05
1.00044e-05
1.00036e-05
1.00027e-05
1.00018e-05
1.00011e-05
1.00005e-05
1e-05
9.9995e-06
9.99899e-06
9.99855e-06
9.99819e-06
9.99789e-06
9.99774e-06
9.99778e-06
9.99803e-06
9.99847e-06
9.99917e-06
1.00001e-05
1.00011e-05
1.0002e-05
1.00026e-05
1.00028e-05
1.00027e-05
1.00022e-05
1.00018e-05
1.00016e-05
1.00017e-05
1.00022e-05
1.0003e-05
1.0004e-05
1.00052e-05
1.00061e-05
1.00068e-05
1.00071e-05
1.0007e-05
1.00065e-05
1.00059e-05
1.00052e-05
1.00048e-05
1.00048e-05
1.00053e-05
1.00061e-05
1.00073e-05
1.00085e-05
1.00096e-05
1.00107e-05
1.00114e-05
1.00117e-05
1.00115e-05
1.00109e-05
1.00099e-05
1.00086e-05
1.00073e-05
1.00061e-05
1.00054e-05
1.00048e-05
1.00044e-05
1.0004e-05
1.00036e-05
1.00029e-05
1.00022e-05
1.00016e-05
1.00011e-05
1.00003e-05
9.99933e-06
9.9979e-06
9.99602e-06
9.99358e-06
9.99113e-06
9.98891e-06
9.98722e-06
9.98593e-06
9.9853e-06
9.98514e-06
9.9854e-06
9.98605e-06
9.98712e-06
9.98872e-06
9.99073e-06
9.99314e-06
9.99559e-06
9.99801e-06
1.00001e-05
1.00019e-05
1.00033e-05
1.00046e-05
1.00057e-05
1.00066e-05
1.00074e-05
1.00079e-05
1.00082e-05
1.00081e-05
1.00077e-05
1.00071e-05
1.00063e-05
1.00057e-05
1.00053e-05
1.00049e-05
1.00046e-05
1.00041e-05
1.00035e-05
1.00028e-05
1.00019e-05
1.0001e-05
1.00003e-05
9.99976e-06
9.99947e-06
9.99936e-06
9.99941e-06
9.99957e-06
9.99968e-06
9.99975e-06
9.99983e-06
1e-05
1.00003e-05
1.00009e-05
1.00016e-05
1.00024e-05
1.0003e-05
1.00035e-05
1.00036e-05
1.00033e-05
1.00026e-05
1.00015e-05
1.00002e-05
9.99871e-06
9.99714e-06
9.99542e-06
9.99401e-06
9.993e-06
9.99254e-06
9.99272e-06
9.99364e-06
9.99526e-06
9.99728e-06
9.99951e-06
1.00016e-05
1.00033e-05
1.00044e-05
1.00047e-05
1.00042e-05
1.00029e-05
1.00013e-05
9.99943e-06
9.99788e-06
9.99691e-06
9.99673e-06
9.99726e-06
9.99828e-06
9.99957e-06
1.00009e-05
1.00021e-05
1.00029e-05
1.00031e-05
1.00027e-05
1.00014e-05
9.99911e-06
9.99614e-06
9.99299e-06
9.99008e-06
9.98789e-06
9.98666e-06
9.9864e-06
9.98681e-06
9.98746e-06
9.98811e-06
9.98865e-06
9.98916e-06
9.98973e-06
9.99064e-06
9.992e-06
9.99394e-06
9.99636e-06
9.9993e-06
1.00026e-05
1.00064e-05
1.00103e-05
1.00141e-05
1.00174e-05
1.00198e-05
1.00211e-05
1.00212e-05
1.00203e-05
1.00187e-05
1.00168e-05
1.00148e-05
1.0013e-05
1.00112e-05
1.00091e-05
1.00065e-05
1.00036e-05
1.00002e-05
9.99658e-06
9.99307e-06
9.99005e-06
9.98764e-06
9.98602e-06
9.98527e-06
9.98534e-06
9.98602e-06
9.98697e-06
9.98793e-06
9.98862e-06
9.9889e-06
9.98871e-06
9.98819e-06
9.98757e-06
9.98701e-06
9.98663e-06
9.98658e-06
9.98692e-06
9.98766e-06
9.98874e-06
9.99022e-06
9.99206e-06
9.99424e-06
9.99657e-06
9.99897e-06
1.00012e-05
1.00033e-05
1.00049e-05
1.00061e-05
1.00067e-05
1.00069e-05
1.00065e-05
1.00057e-05
1.00045e-05
1.00031e-05
1.00016e-05
1e-05
9.99867e-06
9.99762e-06
9.99698e-06
9.99688e-06
9.9974e-06
9.99853e-06
1e-05
1.00017e-05
1.00033e-05
1.00044e-05
1.00048e-05
1.00044e-05
1.00032e-05
1.00015e-05
9.99935e-06
9.99741e-06
9.99601e-06
9.99541e-06
9.99564e-06
9.99671e-06
9.99843e-06
1.00003e-05
1.0002e-05
1.00029e-05
1.00029e-05
1.00023e-05
1.00012e-05
1.00007e-05
1.00013e-05
1.00034e-05
1.00072e-05
1.00118e-05
1.00167e-05
1.00208e-05
1.00236e-05
1.00248e-05
1.00245e-05
1.00231e-05
1.00208e-05
1.00181e-05
1.00149e-05
1.00115e-05
1.00075e-05
1.00038e-05
1.00007e-05
9.99879e-06
9.99862e-06
1.00004e-05
1.00043e-05
1.00094e-05
1.00154e-05
1.00209e-05
1.00254e-05
1.00281e-05
1.00286e-05
1.00272e-05
1.0024e-05
1.00202e-05
1.00156e-05
1.00116e-05
1.0008e-05
1.0005e-05
1.00024e-05
1.00003e-05
9.99854e-06
9.99712e-06
9.99607e-06
9.99559e-06
9.99561e-06
9.99598e-06
9.99656e-06
9.99716e-06
9.99756e-06
9.99758e-06
9.99713e-06
9.99627e-06
9.99496e-06
9.9932e-06
9.99092e-06
9.98827e-06
9.98549e-06
9.98285e-06
9.9806e-06
9.97909e-06
9.97851e-06
9.97872e-06
9.97945e-06
9.98036e-06
9.98116e-06
9.98167e-06
9.98189e-06
9.98208e-06
9.9824e-06
9.9831e-06
9.98431e-06
9.98597e-06
9.9881e-06
9.99059e-06
9.99353e-06
9.9969e-06
1.00008e-05
1.00049e-05
1.00093e-05
1.00132e-05
1.00165e-05
1.00187e-05
1.00196e-05
1.00194e-05
1.00183e-05
1.00166e-05
1.00144e-05
1.00121e-05
1.00096e-05
1.0007e-05
1.00041e-05
1.0001e-05
9.99763e-06
9.99441e-06
9.99152e-06
9.98913e-06
9.98739e-06
9.98647e-06
9.9863e-06
9.9867e-06
9.98759e-06
9.98886e-06
9.99047e-06
9.99227e-06
9.99434e-06
9.99669e-06
9.99945e-06
1.00025e-05
1.0006e-05
1.00098e-05
1.00139e-05
1.0018e-05
1.0022e-05
1.00253e-05
1.00278e-05
1.00288e-05
1.00283e-05
1.00263e-05
1.00232e-05
1.00194e-05
1.00155e-05
1.0012e-05
1.0009e-05
1.00062e-05
1.00033e-05
9.99989e-06
9.99564e-06
9.99051e-06
9.9847e-06
9.97908e-06
9.97417e-06
9.97076e-06
9.96941e-06
9.97041e-06
9.97359e-06
9.97822e-06
9.98353e-06
9.98843e-06
9.99231e-06
9.99451e-06
9.99498e-06
9.99402e-06
9.99206e-06
9.98962e-06
9.98715e-06
9.98507e-06
9.9834e-06
9.98216e-06
9.98137e-06
9.98117e-06
9.9818e-06
9.98354e-06
9.98677e-06
9.99145e-06
9.9974e-06
1.00038e-05
1.00098e-05
1.00144e-05
1.00173e-05
1.0018e-05
1.0017e-05
1.00149e-05
1.00123e-05
1.00096e-05
1.00072e-05
1.00052e-05
1.00033e-05
1.00015e-05
9.99934e-06
9.99696e-06
9.99423e-06
9.9912e-06
9.988e-06
9.98501e-06
9.98239e-06
9.98035e-06
9.97905e-06
9.97865e-06
9.97915e-06
9.98049e-06
9.98272e-06
9.98567e-06
9.98921e-06
9.99337e-06
9.99777e-06
1.00023e-05
1.00067e-05
1.00109e-05
1.00143e-05
1.00169e-05
1.00185e-05
1.0019e-05
1.00185e-05
1.00171e-05
1.00152e-05
1.00129e-05
1.00108e-05
1.00092e-05
1.00082e-05
1.00078e-05
1.0008e-05
1.00088e-05
1.00097e-05
1.00105e-05
1.0011e-05
1.0011e-05
1.00106e-05
1.00096e-05
1.00085e-05
1.00074e-05
1.00065e-05
1.00058e-05
1.00055e-05
1.00055e-05
1.00058e-05
1.0006e-05
1.00062e-05
1.00062e-05
1.0006e-05
1.00052e-05
1.00043e-05
1.00032e-05
1.00021e-05
1.00011e-05
1.00004e-05
1.00001e-05
1.00001e-05
1.00002e-05
1.00003e-05
9.99989e-06
9.99884e-06
9.99696e-06
9.9944e-06
9.9913e-06
9.98792e-06
9.98458e-06
9.98167e-06
9.97948e-06
9.97816e-06
9.97775e-06
9.97841e-06
9.98012e-06
9.98268e-06
9.98598e-06
9.98956e-06
9.9932e-06
9.99644e-06
9.99917e-06
1.00011e-05
1.00022e-05
1.00024e-05
1.0002e-05
1.0001e-05
9.99982e-06
9.99855e-06
9.99732e-06
9.99628e-06
9.99544e-06
9.99478e-06
9.99417e-06
9.99366e-06
9.99323e-06
9.99291e-06
9.99292e-06
9.99343e-06
9.99458e-06
9.99634e-06
9.99863e-06
1.00012e-05
1.00037e-05
1.00058e-05
1.00073e-05
1.00081e-05
1.00083e-05
1.00079e-05
1.00073e-05
1.00065e-05
1.00057e-05
1.00049e-05
1.00038e-05
1.00024e-05
1.00005e-05
9.99833e-06
9.99585e-06
9.99335e-06
9.9911e-06
9.98944e-06
9.98846e-06
9.98815e-06
9.98845e-06
9.98924e-06
9.99035e-06
9.99152e-06
9.99264e-06
9.99363e-06
9.99444e-06
9.99498e-06
9.99539e-06
9.99583e-06
9.99649e-06
9.99745e-06
9.99886e-06
1.00007e-05
1.00029e-05
1.00053e-05
1.00077e-05
1.00099e-05
1.00117e-05
1.0013e-05
1.00137e-05
1.00138e-05
1.00136e-05
1.0013e-05
1.00125e-05
1.00123e-05
1.00123e-05
1.00125e-05
1.00127e-05
1.00125e-05
1.00118e-05
1.00104e-05
1.00082e-05
1.00057e-05
1.00031e-05
1.00007e-05
9.99878e-06
9.99759e-06
9.99709e-06
9.99713e-06
9.99755e-06
9.99821e-06
9.99899e-06
9.99977e-06
1.00006e-05
1.00018e-05
1.00035e-05
1.00057e-05
1.00086e-05
1.00117e-05
1.00147e-05
1.00168e-05
1.00174e-05
1.00163e-05
1.00135e-05
1.00092e-05
1.00042e-05
9.99938e-06
9.99532e-06
9.99241e-06
9.99066e-06
9.98991e-06
9.98974e-06
9.98973e-06
9.98964e-06
9.98945e-06
9.98924e-06
9.98916e-06
9.98941e-06
9.9901e-06
9.99124e-06
9.99269e-06
9.9944e-06
9.99634e-06
9.9986e-06
1.00011e-05
1.0004e-05
1.0007e-05
1.00101e-05
1.00128e-05
1.00148e-05
1.00155e-05
1.00147e-05
1.00122e-05
1.0008e-05
1.00025e-05
9.9962e-06
9.98981e-06
9.9842e-06
9.98037e-06
9.97879e-06
9.97994e-06
9.98374e-06
9.98991e-06
9.99712e-06
1.00048e-05
1.00109e-05
1.00149e-05
1.00162e-05
1.00147e-05
1.00112e-05
1.00063e-05
1.00013e-05
9.99663e-06
9.99346e-06
9.99178e-06
9.99163e-06
9.99257e-06
9.99412e-06
9.9959e-06
9.99753e-06
9.99891e-06
9.9999e-06
1.00006e-05
1.00011e-05
1.00014e-05
1.00017e-05
1.0002e-05
1.00022e-05
1.00022e-05
1.00022e-05
1.0002e-05
1.00015e-05
1.00008e-05
9.99996e-06
9.99881e-06
9.99752e-06
9.996e-06
9.99462e-06
9.99321e-06
9.99189e-06
9.99037e-06
9.98878e-06
9.98686e-06
9.98462e-06
9.98187e-06
9.97925e-06
9.97686e-06
9.97544e-06
9.97533e-06
9.97699e-06
9.98065e-06
9.98588e-06
9.99278e-06
1e-05
1.00076e-05
1.00142e-05
1.00199e-05
1.0024e-05
1.00267e-05
1.00279e-05
1.00279e-05
1.00271e-05
1.00255e-05
1.00235e-05
1.00209e-05
1.00183e-05
1.00152e-05
1.00123e-05
1.0009e-05
1.0006e-05
1.00031e-05
1.00006e-05
9.99851e-06
9.99715e-06
9.99654e-06
9.99675e-06
9.99767e-06
9.99909e-06
1.00007e-05
1.00021e-05
1.0003e-05
1.0003e-05
1.00019e-05
9.99994e-06
9.99724e-06
9.99441e-06
9.99178e-06
9.98997e-06
9.98933e-06
9.99021e-06
9.99266e-06
9.99632e-06
1.00009e-05
1.00056e-05
1.00098e-05
1.00127e-05
1.00139e-05
1.00133e-05
1.00109e-05
1.00074e-05
1.00033e-05
9.9992e-06
9.99572e-06
9.9933e-06
9.99195e-06
9.99151e-06
9.99172e-06
9.99227e-06
9.99287e-06
9.99328e-06
9.99345e-06
9.99345e-06
9.99339e-06
9.99337e-06
9.99356e-06
9.9941e-06
9.99501e-06
9.9961e-06
9.99721e-06
9.9981e-06
9.99855e-06
9.99833e-06
9.9974e-06
9.99591e-06
9.99402e-06
9.99203e-06
9.99028e-06
9.98918e-06
9.98891e-06
9.98955e-06
9.99108e-06
9.99333e-06
9.99608e-06
9.99892e-06
1.00016e-05
1.00039e-05
1.00058e-05
1.0007e-05
1.00077e-05
1.00081e-05
1.00081e-05
1.00078e-05
1.00071e-05
1.00059e-05
1.00043e-05
1.00023e-05
9.99993e-06
9.99763e-06
9.99565e-06
9.99429e-06
9.99377e-06
9.99426e-06
9.99571e-06
9.99779e-06
1.00003e-05
1.00027e-05
1.00048e-05
1.00061e-05
1.00066e-05
1.00062e-05
1.00052e-05
1.00038e-05
1.00022e-05
1.00009e-05
9.99981e-06
9.99911e-06
9.99876e-06
9.99864e-06
9.99851e-06
9.99808e-06
9.99725e-06
9.99601e-06
9.99429e-06
9.99211e-06
9.98958e-06
9.98704e-06
9.98469e-06
9.98288e-06
9.98198e-06
9.98233e-06
9.98395e-06
9.98665e-06
9.9902e-06
9.99405e-06
9.99786e-06
1.00011e-05
1.00035e-05
1.00051e-05
1.00059e-05
1.00059e-05
1.00053e-05
1.00044e-05
1.00034e-05
1.00023e-05
1.00014e-05
1.00008e-05
1.00006e-05
1.00006e-05
1.00009e-05
1.00014e-05
1.0002e-05
1.00026e-05
1.00031e-05
1.00032e-05
1.0003e-05
1.00025e-05
1.00018e-05
1.00011e-05
1.00006e-05
1.00003e-05
1.00006e-05
1.00014e-05
1.00026e-05
1.00041e-05
1.00056e-05
1.0007e-05
1.0008e-05
1.00084e-05
1.00083e-05
1.00075e-05
1.00064e-05
1.0005e-05
1.00035e-05
1.00022e-05
1.00012e-05
1.00006e-05
1.00004e-05
1.00005e-05
1.00009e-05
1.00013e-05
1.00016e-05
1.00016e-05
1.00013e-05
1.00006e-05
9.9995e-06
9.99808e-06
9.99664e-06
9.99514e-06
9.99396e-06
9.99309e-06
9.99283e-06
9.99314e-06
9.994e-06
9.99524e-06
9.9966e-06
9.99791e-06
9.99889e-06
9.9995e-06
9.99969e-06
9.99943e-06
9.99891e-06
9.99815e-06
9.99746e-06
9.99681e-06
9.99643e-06
9.99627e-06
9.99642e-06
9.99678e-06
9.99731e-06
9.99792e-06
9.99856e-06
9.99915e-06
9.99964e-06
1e-05
1.00002e-05
1.00002e-05
1.00001e-05
9.9998e-06
9.99957e-06
9.9994e-06
9.9995e-06
9.9999e-06
1.00006e-05
1.00015e-05
1.00025e-05
1.00035e-05
1.00044e-05
1.0005e-05
1.00053e-05
1.00052e-05
1.00048e-05
1.00041e-05
1.00033e-05
1.00023e-05
1.00013e-05
1.00001e-05
9.99894e-06
9.99783e-06
9.99683e-06
9.99591e-06
9.9953e-06
9.99494e-06
9.9949e-06
9.99508e-06
9.99542e-06
9.99588e-06
9.99638e-06
9.99685e-06
9.99716e-06
9.9973e-06
9.99725e-06
9.99699e-06
9.99648e-06
9.99581e-06
9.99516e-06
9.9947e-06
9.99457e-06
9.99496e-06
9.99592e-06
9.99743e-06
9.99925e-06
1.00012e-05
1.0003e-05
1.00046e-05
1.00054e-05
1.00056e-05
1.00051e-05
1.0004e-05
1.00024e-05
1.00004e-05
9.99852e-06
9.9968e-06
9.99546e-06
9.99469e-06
9.99463e-06
9.9953e-06
9.99655e-06
9.99827e-06
1.00002e-05
1.00022e-05
1.00038e-05
1.0005e-05
1.00054e-05
1.0005e-05
1.00037e-05
1.00017e-05
9.99917e-06
9.99645e-06
9.99393e-06
9.99197e-06
9.991e-06
9.99117e-06
9.99246e-06
9.99476e-06
9.99768e-06
1.00009e-05
1.00038e-05
1.00059e-05
1.00071e-05
1.00071e-05
1.0006e-05
1.00039e-05
1.00015e-05
9.99898e-06
9.99681e-06
9.99526e-06
9.99463e-06
9.99497e-06
9.99614e-06
9.99796e-06
1.00001e-05
1.00023e-05
1.00042e-05
1.00053e-05
1.00064e-05
1.00077e-05
9.99169e-06
1.00613e-05
1.00125e-05
8.76707e-06
1.83699e-05
3.61006e-05
5.24924e-05
6.69761e-05
7.91761e-05
8.96279e-05
9.82657e-05
0.000105412
0.000110956
0.000115346
0.000118872
0.000121937
0.000124553
0.000126863
0.000129049
0.000131551
0.000134514
0.000137941
0.000141513
0.00014438
0.000148896
0.000152251
0.000155862
0.000160524
0.000162988
0.000163017
0.000167161
0.000186859
0.000187152
0.000190897
0.000201693
0.000197359
0.000208868
0.000198211
0.000198112
0.000200433
0.00020163
0.000192479
0.000194793
0.000199636
0.000209158
0.000206005
0.000203526
0.000207427
0.000211734
0.000207487
0.00021788
0.000211704
0.000210108
0.000201828
0.000203495
0.000202681
0.000207159
0.000210042
0.000222961
0.000212754
0.000212757
0.000210755
0.000215241
0.000211936
0.000205136
0.000209392
0.000210658
0.000214736
0.000215477
0.000221592
0.000218057
0.000231183
0.000216496
0.000211134
0.000212318
0.000217312
0.000226976
0.000222625
0.000214726
0.000213155
0.00020687
0.000210259
0.000206781
0.000223826
0.000208352
0.000200975
0.000204889
0.000206029
0.000210334
0.000217603
0.000208167
0.000214523
0.000210185
0.000210026
0.000221449
0.000210831
0.000205904
0.000210293
0.000213876
0.000210077
0.000208463
0.000222382
0.000200406
0.000204608
0.000199513
0.000210487
0.000211579
0.000223393
0.000197518
0.000200487
0.000201217
0.000193947
0.000192203
0.000194642
0.000187201
0.000193269
0.0001867
0.000188074
0.000180831
0.000193907
0.00018799
0.000183496
0.000189979
0.000189465
0.000186778
0.000198757
0.000180912
0.000172328
0.000174575
0.00016742
0.000193809
0.000189849
0.000177969
0.000172596
0.000175407
0.000180303
0.000182553
0.000183373
0.000175043
0.000167238
0.000181481
0.000184642
0.000210374
0.000201632
0.000199211
0.000218267
0.000215012
0.000201972
0.000195707
0.000211408
0.000221506
0.000226966
0.00023491
0.000218758
0.000260064
0.000263226
0.000252842
0.000246103
0.000255484
0.000283634
0.000274599
0.000246684
0.000251729
0.000280768
0.000237693
0.000249231
0.000225925
0.000219089
0.000213122
0.000204729
0.000210223
0.000207689
0.00021284
0.000211123
0.000204256
0.00019965
0.000221406
0.000203337
0.000210931
0.000213567
0.000218104
0.000218475
0.00022641
0.000222076
0.000221175
0.000209296
0.000253708
0.000227701
0.000235467
0.000238521
0.000270967
0.000283973
0.000262025
0.000274518
0.000277868
0.000261012
0.000251419
0.000263785
0.000241146
0.000212406
0.000192449
0.000186767
0.000168593
0.000157834
0.000152934
0.000141827
0.000135527
0.000125908
0.000116752
0.000108132
9.94832e-05
8.99787e-05
7.88353e-05
6.74681e-05
5.79346e-05
5.30682e-05
5.27586e-05
5.59012e-05
6.06318e-05
6.56635e-05
6.95767e-05
7.24711e-05
7.42835e-05
7.53919e-05
7.6086e-05
7.65225e-05
7.66615e-05
7.63718e-05
7.56571e-05
7.42491e-05
7.2472e-05
7.0269e-05
6.82232e-05
6.64182e-05
6.52701e-05
6.48447e-05
6.51214e-05
6.59518e-05
6.70387e-05
6.82416e-05
6.92877e-05
7.01979e-05
7.08076e-05
7.11649e-05
7.12053e-05
7.09042e-05
7.03002e-05
6.95009e-05
6.86918e-05
6.79095e-05
6.73515e-05
6.7089e-05
6.7138e-05
6.74395e-05
6.7876e-05
6.83794e-05
6.88e-05
6.91207e-05
6.9275e-05
6.93218e-05
6.92719e-05
6.91029e-05
6.89237e-05
6.87358e-05
6.86162e-05
6.8553e-05
6.85515e-05
6.86305e-05
6.87624e-05
6.88153e-05
6.89584e-05
6.90691e-05
6.90429e-05
6.90744e-05
6.8958e-05
6.88674e-05
6.87643e-05
6.86766e-05
6.86389e-05
6.86301e-05
6.8671e-05
6.8722e-05
6.86982e-05
6.86986e-05
6.86657e-05
6.86342e-05
6.85446e-05
6.85053e-05
6.84572e-05
6.84354e-05
6.83963e-05
6.84657e-05
6.84807e-05
6.85051e-05
6.8595e-05
6.86209e-05
6.86647e-05
6.86856e-05
6.86371e-05
6.86408e-05
6.85574e-05
6.85213e-05
6.84586e-05
6.84442e-05
6.84497e-05
6.84117e-05
6.84963e-05
6.8562e-05
6.86924e-05
6.88247e-05
6.89563e-05
6.89717e-05
6.89035e-05
6.87514e-05
6.8552e-05
6.83334e-05
6.82099e-05
6.81551e-05
6.82164e-05
6.84531e-05
6.88354e-05
6.92461e-05
6.96258e-05
6.98989e-05
6.9931e-05
6.96332e-05
6.90051e-05
6.81382e-05
6.7295e-05
6.67121e-05
6.65867e-05
6.71623e-05
6.86194e-05
7.07162e-05
7.2814e-05
7.4249e-05
7.463e-05
7.32703e-05
6.79365e-05
5.59104e-05
3.86744e-05
2.59831e-05
2.33535e-05
2.55189e-05
2.73848e-05
2.78769e-05
2.84793e-05
2.85069e-05
2.70945e-05
2.45697e-05
2.24282e-05
2.12624e-05
2.05904e-05
2.01877e-05
2.04325e-05
2.12468e-05
2.2169e-05
2.30384e-05
2.39449e-05
2.49891e-05
2.60764e-05
2.71535e-05
2.81595e-05
2.91546e-05
3.01811e-05
3.13059e-05
3.24629e-05
3.36329e-05
3.47489e-05
3.58303e-05
3.68373e-05
3.77955e-05
3.86938e-05
3.95995e-05
4.05013e-05
4.14423e-05
4.24202e-05
4.34664e-05
4.45072e-05
4.55308e-05
4.64963e-05
4.74398e-05
4.83111e-05
4.91286e-05
4.99059e-05
5.07118e-05
5.15138e-05
5.23213e-05
5.31182e-05
5.39427e-05
5.47558e-05
5.55784e-05
5.64169e-05
5.73315e-05
5.82879e-05
5.92886e-05
6.02886e-05
6.13044e-05
6.22646e-05
6.31689e-05
6.40087e-05
6.48509e-05
6.56684e-05
6.64801e-05
6.72797e-05
6.7862e-05
6.84502e-05
6.97538e-05
7.06431e-05
7.16931e-05
7.27136e-05
7.32873e-05
7.4091e-05
7.46486e-05
7.53044e-05
7.58826e-05
7.68369e-05
7.68976e-05
7.6695e-05
7.67229e-05
7.70579e-05
7.72694e-05
7.75584e-05
7.70858e-05
7.68312e-05
7.6555e-05
7.61182e-05
7.58262e-05
7.52937e-05
7.40996e-05
7.2936e-05
7.17134e-05
7.07623e-05
6.95753e-05
6.81562e-05
6.6811e-05
6.52963e-05
6.3687e-05
6.20197e-05
6.03555e-05
5.84781e-05
5.65784e-05
5.45127e-05
5.24996e-05
5.03338e-05
4.82788e-05
4.61409e-05
4.41433e-05
4.20602e-05
4.01237e-05
3.81639e-05
3.63761e-05
3.45745e-05
3.29575e-05
3.13726e-05
3.00013e-05
2.86412e-05
2.74463e-05
2.62957e-05
2.53234e-05
2.43487e-05
2.3434e-05
2.26698e-05
2.17862e-05
2.09912e-05
2.01596e-05
1.94304e-05
1.85966e-05
1.78672e-05
1.71206e-05
1.63949e-05
1.56876e-05
1.4989e-05
1.4299e-05
1.35509e-05
1.29266e-05
1.23011e-05
1.16998e-05
1.11588e-05
1.06524e-05
1.01986e-05
9.81192e-06
9.45541e-06
9.17539e-06
8.96227e-06
8.81214e-06
8.7189e-06
8.68208e-06
8.69483e-06
8.74777e-06
8.8297e-06
8.93826e-06
9.05911e-06
9.19553e-06
9.33141e-06
9.46915e-06
9.60257e-06
9.72256e-06
9.83461e-06
9.93398e-06
1.00127e-05
1.00793e-05
1.01319e-05
1.01689e-05
1.01939e-05
1.02058e-05
1.02086e-05
1.02026e-05
1.01899e-05
1.01717e-05
1.01501e-05
1.01276e-05
1.01021e-05
1.00786e-05
1.00557e-05
1.00355e-05
1.00176e-05
1.00034e-05
9.99282e-06
9.98509e-06
9.97966e-06
9.97663e-06
9.97532e-06
9.97512e-06
9.97587e-06
9.97742e-06
9.97958e-06
9.98235e-06
9.9858e-06
9.98961e-06
9.99361e-06
9.99749e-06
1.0001e-05
1.00036e-05
1.0005e-05
1.00052e-05
1.00041e-05
1.0002e-05
9.99919e-06
9.99621e-06
9.99351e-06
9.99159e-06
9.99061e-06
9.99049e-06
9.9911e-06
9.99231e-06
9.99403e-06
9.99601e-06
9.99824e-06
1.00006e-05
1.00029e-05
1.00048e-05
1.0006e-05
1.00063e-05
1.00056e-05
1.00037e-05
1.00007e-05
9.99734e-06
9.99389e-06
9.991e-06
9.98916e-06
9.98882e-06
9.99014e-06
9.99284e-06
9.99653e-06
1.00005e-05
1.00041e-05
1.00068e-05
1.00083e-05
1.00086e-05
1.00081e-05
1.00072e-05
1.00063e-05
1.00059e-05
1.0006e-05
1.00064e-05
1.0007e-05
1.00073e-05
1.00071e-05
1.00062e-05
1.00045e-05
1.00024e-05
9.99983e-06
9.99713e-06
9.99442e-06
9.992e-06
9.98999e-06
9.98855e-06
9.98783e-06
9.98809e-06
9.98943e-06
9.99171e-06
9.99483e-06
9.99846e-06
1.00023e-05
1.00057e-05
1.00082e-05
1.00095e-05
1.00095e-05
1.00082e-05
1.00058e-05
1.00029e-05
9.99986e-06
9.99725e-06
9.99541e-06
9.99464e-06
9.99497e-06
9.99623e-06
9.99819e-06
1.00005e-05
1.00028e-05
1.00047e-05
1.00061e-05
1.00069e-05
1.00071e-05
1.00067e-05
1.00061e-05
1.00055e-05
1.00053e-05
1.00052e-05
1.00052e-05
1.00052e-05
1.00051e-05
1.00047e-05
1.00042e-05
1.00035e-05
1.00026e-05
1.00014e-05
1.00002e-05
9.99875e-06
9.99747e-06
9.99636e-06
9.99579e-06
9.99587e-06
9.99653e-06
9.99758e-06
9.99863e-06
9.99935e-06
9.99941e-06
9.99847e-06
9.99664e-06
9.99393e-06
9.99097e-06
9.98784e-06
9.98536e-06
9.98364e-06
9.98308e-06
9.98353e-06
9.98481e-06
9.98669e-06
9.98884e-06
9.99122e-06
9.99351e-06
9.9957e-06
9.99761e-06
9.99931e-06
1.00007e-05
1.00017e-05
1.00024e-05
1.00026e-05
1.00023e-05
1.00017e-05
1.00009e-05
1.00001e-05
9.99943e-06
9.99894e-06
9.99861e-06
9.99848e-06
9.99851e-06
9.99871e-06
9.9991e-06
9.99985e-06
1.00008e-05
1.00019e-05
1.00027e-05
1.00031e-05
1.00026e-05
1.00015e-05
9.99996e-06
9.99959e-06
9.99915e-06
9.99891e-06
9.99871e-06
9.99859e-06
9.9985e-06
9.99838e-06
9.9982e-06
9.99802e-06
9.99813e-06
9.99867e-06
9.99911e-06
9.99932e-06
9.99933e-06
9.9992e-06
9.99891e-06
9.99859e-06
9.99829e-06
9.99809e-06
9.99797e-06
9.99797e-06
9.99806e-06
9.99825e-06
9.99851e-06
9.99889e-06
9.99937e-06
9.99996e-06
1.00006e-05
1.00014e-05
1.0002e-05
1.00024e-05
1.00025e-05
1.00022e-05
1.00014e-05
1.00002e-05
9.99875e-06
9.99727e-06
9.99581e-06
9.99458e-06
9.9936e-06
9.99307e-06
9.99306e-06
9.99371e-06
9.99494e-06
9.99653e-06
9.99826e-06
9.99984e-06
1.0001e-05
1.00017e-05
1.00017e-05
1.00013e-05
1.00004e-05
9.99938e-06
9.99834e-06
9.99749e-06
9.99684e-06
9.99646e-06
9.99632e-06
9.99645e-06
9.99673e-06
9.99708e-06
9.99742e-06
9.99768e-06
9.99785e-06
9.99803e-06
9.99829e-06
9.99869e-06
9.99919e-06
9.99973e-06
1.00003e-05
1.00007e-05
1.0001e-05
1.0001e-05
1.00007e-05
1.00001e-05
9.99934e-06
9.99856e-06
9.99774e-06
9.99686e-06
9.9961e-06
9.99547e-06
9.99527e-06
9.99545e-06
9.99607e-06
9.99688e-06
9.9979e-06
9.99892e-06
9.99985e-06
1.00005e-05
1.0001e-05
1.00013e-05
1.00012e-05
1.00009e-05
1.00004e-05
9.9998e-06
9.99919e-06
9.99861e-06
9.99819e-06
9.9979e-06
9.99786e-06
9.998e-06
9.99841e-06
9.99897e-06
9.99962e-06
1.00002e-05
1.00008e-05
1.00014e-05
1.00017e-05
1.00018e-05
1.00018e-05
1.00018e-05
1.00017e-05
1.00016e-05
1.00016e-05
1.00018e-05
1.00021e-05
1.00024e-05
1.00025e-05
1.00024e-05
1.00021e-05
1.00015e-05
1.00008e-05
1e-05
9.99919e-06
9.99836e-06
9.99775e-06
9.99735e-06
9.99727e-06
9.99747e-06
9.99816e-06
9.99923e-06
1.00007e-05
1.00022e-05
1.00038e-05
1.00051e-05
1.00056e-05
1.0005e-05
1.00029e-05
9.99898e-06
9.99272e-06
9.98542e-06
9.9771e-06
9.97067e-06
9.96809e-06
9.97166e-06
9.98489e-06
1.00062e-05
1.00411e-05
1.00799e-05
1.01311e-05
1.01769e-05
1.02235e-05
1.02549e-05
1.02785e-05
1.02824e-05
1.02622e-05
1.02202e-05
1.01398e-05
1.004e-05
9.89028e-06
9.74022e-06
9.5393e-06
9.36079e-06
9.13943e-06
8.9586e-06
8.73817e-06
8.57836e-06
8.43896e-06
8.36312e-06
8.31742e-06
8.35472e-06
8.52845e-06
8.76958e-06
9.19645e-06
9.6317e-06
1.01425e-05
1.07689e-05
1.15346e-05
1.23395e-05
1.32209e-05
1.41671e-05
1.52158e-05
1.63462e-05
1.74487e-05
1.86744e-05
2.00044e-05
2.13817e-05
2.27178e-05
2.41768e-05
2.59912e-05
2.7574e-05
2.91122e-05
3.05302e-05
3.21558e-05
3.37654e-05
3.52582e-05
3.68234e-05
3.83805e-05
3.9933e-05
4.13495e-05
4.28284e-05
4.43604e-05
4.57989e-05
4.73531e-05
4.8749e-05
5.03107e-05
5.1881e-05
5.33338e-05
5.48358e-05
5.63852e-05
5.78244e-05
5.93655e-05
6.07211e-05
6.22266e-05
6.37051e-05
6.50325e-05
6.64008e-05
6.78037e-05
6.90788e-05
7.04479e-05
7.16479e-05
7.29932e-05
7.43475e-05
7.55715e-05
7.68256e-05
7.81196e-05
7.93426e-05
8.04058e-05
8.14416e-05
8.2536e-05
8.35652e-05
8.44807e-05
8.54378e-05
8.64709e-05
8.75025e-05
8.83082e-05
8.88615e-05
9.05143e-05
9.15457e-05
9.27324e-05
9.38638e-05
9.43979e-05
9.5454e-05
9.64499e-05
9.59762e-05
9.84491e-05
9.93838e-05
9.91252e-05
9.97168e-05
0.000101529
0.000102278
0.000102527
0.000100923
0.000103174
0.000103182
0.000102024
0.000101854
0.000103076
0.000103004
0.00010294
0.000102677
0.000101156
0.000100573
0.000100338
9.90684e-05
9.76477e-05
9.65539e-05
9.54439e-05
9.43713e-05
9.34967e-05
9.2579e-05
9.16844e-05
9.07608e-05
8.99384e-05
8.90686e-05
8.81305e-05
8.71477e-05
8.60572e-05
8.49041e-05
8.366e-05
8.24739e-05
8.13211e-05
8.03184e-05
7.94467e-05
7.87794e-05
7.81637e-05
7.75439e-05
7.66939e-05
7.57178e-05
7.46011e-05
7.35239e-05
7.25074e-05
7.16257e-05
7.07888e-05
6.98339e-05
6.85209e-05
6.68926e-05
6.5202e-05
6.37816e-05
6.26786e-05
6.1913e-05
6.13015e-05
6.07016e-05
5.97872e-05
5.8643e-05
5.75735e-05
5.68769e-05
5.65005e-05
5.62803e-05
5.62049e-05
5.66755e-05
5.74244e-05
5.83477e-05
5.90947e-05
5.97812e-05
6.03613e-05
6.08805e-05
6.13793e-05
6.23174e-05
6.31309e-05
6.40173e-05
6.50116e-05
6.61143e-05
6.74005e-05
6.95905e-05
7.23007e-05
7.55239e-05
7.9061e-05
8.33268e-05
8.79466e-05
9.28383e-05
9.69038e-05
0.000102621
0.000107638
0.000111878
0.000114182
0.000114383
0.000111484
0.000107735
0.000102865
9.71013e-05
9.20527e-05
8.56951e-05
8.00422e-05
8.02261e-05
9.26814e-05
0.000132047
0.000212877
0.000275243
0.0002983
0.000331721
0.000325252
0.000347731
0.000364136
0.000365154
0.000358903
0.000333376
0.000343331
0.000349917
0.000340543
0.000363772
0.000336704
0.000338802
0.000359597
0.000343475
0.000315954
0.000334138
0.000330871
0.000357033
0.000377482
0.000387579
0.000362997
0.000356272
0.000338172
0.000343448
0.000333067
0.000335017
0.000337106
0.000347222
0.00034298
0.000368873
0.000363516
0.000329448
0.000397247
0.000386563
0.000393609
0.000366219
0.000364618