/*--------------------------------*- C++ -*----------------------------------*\
| =========                 |                                                 |
| \\      /  F ield         | foam-extend: Open Source CFD                    |
|  \\    /   O peration     | Version:     4.0                                |
|   \\  /    A nd           | Web:         http://www.foam-extend.org         |
|    \\/     M anipulation  |                                                 |
\*---------------------------------------------------------------------------*/
FoamFile
{
    version     2.0;
    format      ascii;
    class       volScalarField;
    location    "0.024";
    object      h;
}
// * * * * * * * * * * * * * * * * * * * * * * * * * * * * * * * * * * * * * //

dimensions      [0 1 0 0 0 0 0];

internalField   nonuniform List<scalar> 
176451
(
1.0001e-05
9.99635e-06
9.99442e-06
9.99995e-06
1.00028e-05
1.00023e-05
9.99856e-06
9.99775e-06
1.00012e-05
1.00034e-05
1.00031e-05
1.00066e-05
1.00005e-05
9.99696e-06
9.99772e-06
9.99732e-06
1.00018e-05
1.00023e-05
1.00045e-05
1.00015e-05
9.99974e-06
1.00006e-05
1.00007e-05
1.0003e-05
1.00037e-05
1.00012e-05
1.00002e-05
9.99798e-06
9.99777e-06
1.00005e-05
9.9992e-06
1.00005e-05
9.99848e-06
9.9978e-06
9.9988e-06
1.0007e-05
1.0005e-05
1.0002e-05
9.99571e-06
9.99921e-06
9.99737e-06
1.00026e-05
9.99725e-06
1.00004e-05
1.00026e-05
9.99987e-06
1.00005e-05
1.00011e-05
1.00043e-05
1.00016e-05
1.00035e-05
9.99582e-06
9.99799e-06
9.99883e-06
1.00001e-05
1.00033e-05
1.00007e-05
9.9996e-06
9.99864e-06
1.00013e-05
1.00003e-05
9.99498e-06
9.99593e-06
1.00016e-05
1.00001e-05
1.00046e-05
1.00014e-05
1.00002e-05
9.99994e-06
9.99901e-06
1.00003e-05
1.00024e-05
1.00007e-05
1.0003e-05
1.00031e-05
1.00011e-05
1.00011e-05
9.99985e-06
9.99642e-06
9.99643e-06
9.99821e-06
1e-05
1.00002e-05
9.99643e-06
9.99959e-06
9.99986e-06
1.0002e-05
1.00009e-05
1.00018e-05
9.99922e-06
1.00058e-05
9.99855e-06
1.00052e-05
9.99897e-06
9.99785e-06
9.99704e-06
9.99746e-06
1.0001e-05
1.00065e-05
9.99636e-06
1.00007e-05
9.99884e-06
1.00035e-05
9.99778e-06
1.00025e-05
9.99888e-06
1.00027e-05
1.00028e-05
1.00028e-05
1.00035e-05
1.00046e-05
1.00016e-05
1.00033e-05
1.00027e-05
1.00034e-05
1.00051e-05
1.00052e-05
1.00004e-05
1.00035e-05
1.00006e-05
9.99889e-06
9.99306e-06
9.99944e-06
9.99663e-06
9.99887e-06
1.00008e-05
9.9975e-06
1.00033e-05
9.99979e-06
1.00026e-05
1.00023e-05
1.00031e-05
1.00014e-05
9.99946e-06
1.00025e-05
9.99705e-06
1.00007e-05
9.99809e-06
1.00012e-05
9.99968e-06
1e-05
9.99962e-06
1.00032e-05
1.00022e-05
9.99767e-06
1.0001e-05
1.00032e-05
1.0001e-05
1.00007e-05
9.99867e-06
1.0006e-05
1.00001e-05
9.99811e-06
1.00009e-05
9.99773e-06
1.00019e-05
9.99878e-06
1.00017e-05
1.00036e-05
1.00001e-05
1.00001e-05
9.99886e-06
9.99891e-06
1.00007e-05
1.00006e-05
1.00013e-05
1.00009e-05
1.00012e-05
9.99832e-06
9.99958e-06
9.99832e-06
1.00004e-05
1.00049e-05
9.99601e-06
9.99956e-06
9.99693e-06
1.00013e-05
9.99534e-06
1.00031e-05
1.00027e-05
1.00003e-05
9.99835e-06
9.99772e-06
1.00002e-05
9.99777e-06
9.9997e-06
1.00035e-05
1.0007e-05
1.00042e-05
9.9999e-06
9.99683e-06
9.98968e-06
9.9827e-06
9.97703e-06
9.97353e-06
9.97289e-06
9.97483e-06
9.97846e-06
9.98289e-06
9.98707e-06
9.99051e-06
9.99291e-06
9.99448e-06
9.99547e-06
9.99619e-06
9.99681e-06
9.99746e-06
9.99814e-06
9.99877e-06
9.99918e-06
9.99939e-06
9.9995e-06
9.99965e-06
1e-05
1.00008e-05
1.00021e-05
1.00039e-05
1.00061e-05
1.00086e-05
1.00109e-05
1.0013e-05
1.00146e-05
1.00156e-05
1.00163e-05
1.00167e-05
1.0017e-05
1.00173e-05
1.00177e-05
1.00178e-05
1.00173e-05
1.00159e-05
1.00138e-05
1.00108e-05
1.00075e-05
1.00042e-05
1.00015e-05
9.9995e-06
9.99831e-06
9.99793e-06
9.99801e-06
9.9984e-06
9.99884e-06
9.99928e-06
9.99969e-06
1e-05
1.00002e-05
1.00002e-05
1.00001e-05
9.99991e-06
9.99966e-06
9.99952e-06
9.99942e-06
9.99945e-06
9.99944e-06
9.99936e-06
9.99897e-06
9.99812e-06
9.99672e-06
9.99504e-06
9.99323e-06
9.99158e-06
9.99031e-06
9.98981e-06
9.99009e-06
9.99108e-06
9.99268e-06
9.99454e-06
9.99644e-06
9.998e-06
9.99916e-06
9.99994e-06
1.00005e-05
1.00011e-05
1.00019e-05
1.0003e-05
1.00041e-05
1.00048e-05
1.00048e-05
1.00041e-05
1.00026e-05
1.00005e-05
9.99829e-06
9.99636e-06
9.99479e-06
9.99366e-06
9.9929e-06
9.99249e-06
9.99216e-06
9.99177e-06
9.99129e-06
9.99081e-06
9.99029e-06
9.98983e-06
9.9895e-06
9.98943e-06
9.98955e-06
9.98989e-06
9.99049e-06
9.99137e-06
9.99237e-06
9.9933e-06
9.99409e-06
9.99465e-06
9.99495e-06
9.99509e-06
9.9953e-06
9.99578e-06
9.99656e-06
9.99762e-06
9.99888e-06
1.00001e-05
1.00011e-05
1.00016e-05
1.00016e-05
1.00013e-05
1.00008e-05
1.00004e-05
1.00004e-05
1.00009e-05
1.00017e-05
1.00027e-05
1.00037e-05
1.00047e-05
1.00055e-05
1.00061e-05
1.00067e-05
1.00073e-05
1.00077e-05
1.00081e-05
1.00085e-05
1.0009e-05
1.00095e-05
1.00101e-05
1.00109e-05
1.00116e-05
1.00123e-05
1.00128e-05
1.0013e-05
1.00127e-05
1.00117e-05
1.001e-05
1.00077e-05
1.00047e-05
1.00013e-05
9.99792e-06
9.99468e-06
9.99178e-06
9.98942e-06
9.98781e-06
9.98695e-06
9.98675e-06
9.98719e-06
9.98819e-06
9.98974e-06
9.99177e-06
9.99436e-06
9.99742e-06
1.00008e-05
1.00039e-05
1.00062e-05
1.00072e-05
1.00067e-05
1.00049e-05
1.00022e-05
9.99937e-06
9.99709e-06
9.9957e-06
9.99533e-06
9.99582e-06
9.99684e-06
9.99791e-06
9.99879e-06
9.99932e-06
9.99952e-06
9.99942e-06
9.99925e-06
9.99923e-06
9.99953e-06
1.00001e-05
1.0001e-05
1.00021e-05
1.00033e-05
1.00043e-05
1.00052e-05
1.00057e-05
1.00059e-05
1.00056e-05
1.0005e-05
1.00041e-05
1.00032e-05
1.00022e-05
1.00014e-05
1.00008e-05
1.00004e-05
1e-05
9.99978e-06
9.99963e-06
9.99957e-06
9.99954e-06
9.99956e-06
9.99965e-06
9.99983e-06
1.00001e-05
1.00005e-05
1.0001e-05
1.00017e-05
1.00022e-05
1.00026e-05
1.00026e-05
1.00025e-05
1.00021e-05
1.00018e-05
1.00018e-05
1.00021e-05
1.00027e-05
1.00037e-05
1.00049e-05
1.00062e-05
1.00074e-05
1.00083e-05
1.00087e-05
1.00088e-05
1.00083e-05
1.00074e-05
1.00064e-05
1.00056e-05
1.00051e-05
1.00051e-05
1.00055e-05
1.00065e-05
1.00076e-05
1.00087e-05
1.00098e-05
1.00104e-05
1.00107e-05
1.00104e-05
1.00098e-05
1.00088e-05
1.00075e-05
1.00064e-05
1.00055e-05
1.0005e-05
1.00048e-05
1.0005e-05
1.00052e-05
1.00053e-05
1.00051e-05
1.00048e-05
1.00044e-05
1.00038e-05
1.00029e-05
1.00017e-05
1e-05
9.99781e-06
9.99503e-06
9.9922e-06
9.98958e-06
9.98758e-06
9.98611e-06
9.98555e-06
9.98581e-06
9.98677e-06
9.98834e-06
9.99029e-06
9.99258e-06
9.99494e-06
9.99735e-06
9.99949e-06
1.00014e-05
1.00028e-05
1.00039e-05
1.00048e-05
1.00055e-05
1.00062e-05
1.00069e-05
1.00075e-05
1.00081e-05
1.00087e-05
1.0009e-05
1.00091e-05
1.0009e-05
1.00088e-05
1.00085e-05
1.00082e-05
1.00078e-05
1.00073e-05
1.00066e-05
1.00057e-05
1.00046e-05
1.00036e-05
1.00025e-05
1.00017e-05
1.00011e-05
1.00008e-05
1.00006e-05
1.00005e-05
1.00005e-05
1.00005e-05
1.00005e-05
1.00005e-05
1.00007e-05
1.0001e-05
1.00014e-05
1.00021e-05
1.00028e-05
1.00033e-05
1.00036e-05
1.00037e-05
1.00033e-05
1.00027e-05
1.00017e-05
1.00006e-05
9.99937e-06
9.99803e-06
9.99654e-06
9.99528e-06
9.99432e-06
9.99376e-06
9.9937e-06
9.99431e-06
9.99554e-06
9.99716e-06
9.99902e-06
1.00008e-05
1.00023e-05
1.00033e-05
1.00036e-05
1.00033e-05
1.00022e-05
1.00008e-05
9.99914e-06
9.99778e-06
9.99696e-06
9.99686e-06
9.99743e-06
9.99844e-06
9.99969e-06
1.0001e-05
1.00021e-05
1.00029e-05
1.00032e-05
1.00029e-05
1.00019e-05
1.00002e-05
9.99793e-06
9.99557e-06
9.99343e-06
9.99182e-06
9.9909e-06
9.99062e-06
9.99071e-06
9.99085e-06
9.99087e-06
9.99079e-06
9.99073e-06
9.99088e-06
9.99147e-06
9.99264e-06
9.99445e-06
9.99678e-06
9.99967e-06
1.0003e-05
1.00068e-05
1.00107e-05
1.00146e-05
1.0018e-05
1.00206e-05
1.00221e-05
1.00223e-05
1.00215e-05
1.002e-05
1.00182e-05
1.00164e-05
1.00149e-05
1.00135e-05
1.0012e-05
1.00101e-05
1.00078e-05
1.00049e-05
1.00015e-05
9.99799e-06
9.99473e-06
9.99195e-06
9.98993e-06
9.98881e-06
9.98862e-06
9.98913e-06
9.98999e-06
9.99089e-06
9.99154e-06
9.99178e-06
9.99155e-06
9.99097e-06
9.99027e-06
9.98963e-06
9.98916e-06
9.98899e-06
9.98921e-06
9.98982e-06
9.99077e-06
9.9921e-06
9.99379e-06
9.99587e-06
9.99815e-06
1.00006e-05
1.0003e-05
1.00054e-05
1.00074e-05
1.0009e-05
1.00101e-05
1.00108e-05
1.00108e-05
1.00103e-05
1.00093e-05
1.00078e-05
1.00059e-05
1.00038e-05
1.00017e-05
9.99977e-06
9.99837e-06
9.99769e-06
9.99789e-06
9.99892e-06
1.00005e-05
1.00024e-05
1.00042e-05
1.00056e-05
1.00061e-05
1.00058e-05
1.00046e-05
1.00027e-05
1.00003e-05
9.99802e-06
9.99621e-06
9.99516e-06
9.99493e-06
9.99563e-06
9.99702e-06
9.99864e-06
1e-05
1.00007e-05
1.00005e-05
9.99958e-06
9.99834e-06
9.99772e-06
9.99839e-06
1.00008e-05
1.00049e-05
1.00099e-05
1.00151e-05
1.00192e-05
1.00219e-05
1.00226e-05
1.00217e-05
1.00196e-05
1.00165e-05
1.00131e-05
1.00094e-05
1.00056e-05
1.00016e-05
9.998e-06
9.99512e-06
9.99352e-06
9.99363e-06
9.99569e-06
9.9998e-06
1.00053e-05
1.00118e-05
1.00179e-05
1.00232e-05
1.00267e-05
1.00281e-05
1.00276e-05
1.00252e-05
1.00219e-05
1.00179e-05
1.0014e-05
1.00105e-05
1.00074e-05
1.00047e-05
1.00024e-05
1.00004e-05
9.9988e-06
9.99763e-06
9.99706e-06
9.99703e-06
9.99739e-06
9.99798e-06
9.99861e-06
9.99912e-06
9.99929e-06
9.99902e-06
9.99837e-06
9.99725e-06
9.99564e-06
9.99343e-06
9.99074e-06
9.98782e-06
9.98492e-06
9.98229e-06
9.98033e-06
9.97924e-06
9.97889e-06
9.97905e-06
9.97942e-06
9.97972e-06
9.97978e-06
9.9796e-06
9.97941e-06
9.97936e-06
9.97974e-06
9.98068e-06
9.9822e-06
9.98437e-06
9.98708e-06
9.99046e-06
9.99436e-06
9.99877e-06
1.00033e-05
1.00078e-05
1.00114e-05
1.0014e-05
1.00152e-05
1.00149e-05
1.00136e-05
1.00113e-05
1.00089e-05
1.00063e-05
1.00039e-05
1.00016e-05
9.9994e-06
9.99698e-06
9.99424e-06
9.99124e-06
9.98832e-06
9.98567e-06
9.98358e-06
9.98225e-06
9.98183e-06
9.98225e-06
9.98328e-06
9.98476e-06
9.98649e-06
9.98839e-06
9.99029e-06
9.99228e-06
9.99442e-06
9.99691e-06
9.99969e-06
1.00029e-05
1.00065e-05
1.00105e-05
1.00146e-05
1.00187e-05
1.00222e-05
1.0025e-05
1.00265e-05
1.00266e-05
1.00254e-05
1.0023e-05
1.002e-05
1.00167e-05
1.00138e-05
1.00112e-05
1.00087e-05
1.0006e-05
1.00027e-05
9.99849e-06
9.99336e-06
9.98752e-06
9.98177e-06
9.97657e-06
9.97267e-06
9.97063e-06
9.97075e-06
9.97289e-06
9.97645e-06
9.98076e-06
9.98487e-06
9.98822e-06
9.99026e-06
9.991e-06
9.99074e-06
9.98992e-06
9.98894e-06
9.98816e-06
9.98776e-06
9.98766e-06
9.98764e-06
9.98761e-06
9.98762e-06
9.98789e-06
9.98876e-06
9.99068e-06
9.9938e-06
9.99807e-06
1.00029e-05
1.00075e-05
1.00112e-05
1.00134e-05
1.0014e-05
1.0013e-05
1.0011e-05
1.00085e-05
1.00059e-05
1.00035e-05
1.00014e-05
9.99947e-06
9.99762e-06
9.99568e-06
9.99365e-06
9.99143e-06
9.98904e-06
9.98658e-06
9.98437e-06
9.98254e-06
9.98129e-06
9.98074e-06
9.98096e-06
9.9819e-06
9.98342e-06
9.9855e-06
9.98796e-06
9.99072e-06
9.99386e-06
9.99723e-06
1.00009e-05
1.00045e-05
1.00082e-05
1.00114e-05
1.0014e-05
1.00156e-05
1.0016e-05
1.00152e-05
1.00132e-05
1.00107e-05
1.00077e-05
1.0005e-05
1.0003e-05
1.00019e-05
1.00017e-05
1.00024e-05
1.00038e-05
1.00054e-05
1.0007e-05
1.00081e-05
1.00086e-05
1.00085e-05
1.00077e-05
1.00067e-05
1.00056e-05
1.00048e-05
1.00041e-05
1.00039e-05
1.00041e-05
1.00045e-05
1.00051e-05
1.00056e-05
1.0006e-05
1.00061e-05
1.00058e-05
1.00051e-05
1.00043e-05
1.00033e-05
1.00022e-05
1.00012e-05
1.00004e-05
9.99985e-06
9.99933e-06
9.99877e-06
9.99786e-06
9.9964e-06
9.99424e-06
9.99165e-06
9.98869e-06
9.98566e-06
9.9828e-06
9.98049e-06
9.97888e-06
9.97811e-06
9.97814e-06
9.97907e-06
9.98088e-06
9.98337e-06
9.98646e-06
9.98976e-06
9.99307e-06
9.99601e-06
9.99849e-06
1.00002e-05
1.00013e-05
1.00016e-05
1.00014e-05
1.00007e-05
9.9998e-06
9.99888e-06
9.99801e-06
9.9973e-06
9.99675e-06
9.9963e-06
9.99584e-06
9.99541e-06
9.99498e-06
9.99461e-06
9.99453e-06
9.99493e-06
9.99597e-06
9.99764e-06
9.99989e-06
1.00024e-05
1.0005e-05
1.00072e-05
1.00089e-05
1.00099e-05
1.00101e-05
1.00098e-05
1.00091e-05
1.00082e-05
1.0007e-05
1.00058e-05
1.00042e-05
1.00023e-05
1.00001e-05
9.99762e-06
9.99499e-06
9.99247e-06
9.99031e-06
9.9888e-06
9.98801e-06
9.98788e-06
9.98835e-06
9.98929e-06
9.99054e-06
9.99184e-06
9.99313e-06
9.9943e-06
9.99533e-06
9.99609e-06
9.99668e-06
9.99724e-06
9.99792e-06
9.9988e-06
1e-05
1.00016e-05
1.00036e-05
1.00057e-05
1.00079e-05
1.00099e-05
1.00116e-05
1.00128e-05
1.00133e-05
1.00133e-05
1.00127e-05
1.00118e-05
1.00109e-05
1.00103e-05
1.001e-05
1.00102e-05
1.00105e-05
1.00107e-05
1.00106e-05
1.00098e-05
1.00082e-05
1.00062e-05
1.0004e-05
1.00017e-05
9.9998e-06
9.99848e-06
9.99777e-06
9.99756e-06
9.99774e-06
9.99815e-06
9.99864e-06
9.99909e-06
9.99959e-06
1.00003e-05
1.00016e-05
1.00034e-05
1.00059e-05
1.00088e-05
1.00117e-05
1.00139e-05
1.00148e-05
1.0014e-05
1.00115e-05
1.00076e-05
1.0003e-05
9.99853e-06
9.99474e-06
9.99204e-06
9.99044e-06
9.9898e-06
9.98971e-06
9.98975e-06
9.98971e-06
9.98955e-06
9.98935e-06
9.98927e-06
9.98949e-06
9.99013e-06
9.99121e-06
9.99257e-06
9.99422e-06
9.99611e-06
9.99838e-06
1.0001e-05
1.0004e-05
1.00073e-05
1.00107e-05
1.00137e-05
1.00159e-05
1.00168e-05
1.00161e-05
1.00136e-05
1.00093e-05
1.00038e-05
9.99744e-06
9.99102e-06
9.9854e-06
9.98146e-06
9.97966e-06
9.98038e-06
9.98357e-06
9.98889e-06
9.99516e-06
1.00018e-05
1.0007e-05
1.00103e-05
1.00112e-05
1.00096e-05
1.00062e-05
1.00016e-05
9.99706e-06
9.99293e-06
9.9903e-06
9.98915e-06
9.98945e-06
9.99079e-06
9.99266e-06
9.99471e-06
9.99656e-06
9.99811e-06
9.99924e-06
1.00001e-05
1.00007e-05
1.00012e-05
1.00016e-05
1.0002e-05
1.00024e-05
1.00027e-05
1.00028e-05
1.00027e-05
1.00024e-05
1.00018e-05
1.0001e-05
1e-05
9.99888e-06
9.99756e-06
9.99638e-06
9.9952e-06
9.99409e-06
9.99277e-06
9.99131e-06
9.98946e-06
9.98722e-06
9.9844e-06
9.98165e-06
9.9791e-06
9.97751e-06
9.97724e-06
9.97878e-06
9.98237e-06
9.98758e-06
9.99448e-06
1.00018e-05
1.00094e-05
1.0016e-05
1.00218e-05
1.00258e-05
1.00285e-05
1.00297e-05
1.00297e-05
1.00288e-05
1.00271e-05
1.0025e-05
1.00223e-05
1.00195e-05
1.00164e-05
1.00134e-05
1.00103e-05
1.00074e-05
1.00047e-05
1.00024e-05
1.00003e-05
9.99899e-06
9.99826e-06
9.99822e-06
9.99876e-06
9.99973e-06
1.00008e-05
1.00017e-05
1.0002e-05
1.00014e-05
9.99988e-06
9.99748e-06
9.99441e-06
9.99129e-06
9.98843e-06
9.98646e-06
9.98572e-06
9.98657e-06
9.98905e-06
9.99281e-06
9.99759e-06
1.00025e-05
1.00069e-05
1.00101e-05
1.00116e-05
1.00113e-05
1.00092e-05
1.00061e-05
1.00022e-05
9.99846e-06
9.99523e-06
9.99302e-06
9.99186e-06
9.99157e-06
9.99191e-06
9.99258e-06
9.99329e-06
9.99381e-06
9.99409e-06
9.99419e-06
9.99422e-06
9.99426e-06
9.99448e-06
9.99499e-06
9.99581e-06
9.99676e-06
9.9977e-06
9.99842e-06
9.99872e-06
9.9984e-06
9.99744e-06
9.99598e-06
9.99418e-06
9.99233e-06
9.99074e-06
9.98978e-06
9.98962e-06
9.99031e-06
9.99183e-06
9.99399e-06
9.99658e-06
9.99921e-06
1.00017e-05
1.00037e-05
1.00053e-05
1.00063e-05
1.00068e-05
1.0007e-05
1.00068e-05
1.00064e-05
1.00055e-05
1.00043e-05
1.00026e-05
1.00005e-05
9.99816e-06
9.9959e-06
9.99403e-06
9.99282e-06
9.99253e-06
9.99327e-06
9.99498e-06
9.99734e-06
1.00001e-05
1.00027e-05
1.00049e-05
1.00064e-05
1.00069e-05
1.00067e-05
1.00057e-05
1.00044e-05
1.00028e-05
1.00015e-05
1.00005e-05
9.99988e-06
9.99962e-06
9.99964e-06
9.99973e-06
9.99961e-06
9.99917e-06
9.99837e-06
9.99711e-06
9.99535e-06
9.99317e-06
9.99086e-06
9.98857e-06
9.98667e-06
9.98551e-06
9.98543e-06
9.98651e-06
9.98861e-06
9.99151e-06
9.99477e-06
9.99804e-06
1.00008e-05
1.0003e-05
1.00044e-05
1.00052e-05
1.00052e-05
1.00048e-05
1.00041e-05
1.00032e-05
1.00024e-05
1.00018e-05
1.00013e-05
1.00013e-05
1.00014e-05
1.00019e-05
1.00025e-05
1.00031e-05
1.00037e-05
1.00041e-05
1.00041e-05
1.00038e-05
1.0003e-05
1.00021e-05
1.00011e-05
1.00004e-05
9.99987e-06
9.9999e-06
1.00005e-05
1.00016e-05
1.0003e-05
1.00044e-05
1.00057e-05
1.00067e-05
1.00072e-05
1.0007e-05
1.00063e-05
1.00053e-05
1.00039e-05
1.00025e-05
1.00013e-05
1.00004e-05
9.99981e-06
9.99969e-06
9.99985e-06
1.00002e-05
1.00005e-05
1.00007e-05
1.00005e-05
1.00001e-05
9.99911e-06
9.99789e-06
9.99641e-06
9.995e-06
9.99365e-06
9.9927e-06
9.99213e-06
9.9922e-06
9.99286e-06
9.99403e-06
9.99554e-06
9.99712e-06
9.9986e-06
9.99971e-06
1.00004e-05
1.00007e-05
1.00005e-05
9.99995e-06
9.99916e-06
9.99839e-06
9.99762e-06
9.9971e-06
9.99677e-06
9.99677e-06
9.99701e-06
9.99747e-06
9.99808e-06
9.99877e-06
9.99947e-06
1.00001e-05
1.00006e-05
1.0001e-05
1.00011e-05
1.0001e-05
1.00008e-05
1.00005e-05
1.00003e-05
1.00003e-05
1.00005e-05
1.00011e-05
1.00019e-05
1.00027e-05
1.00036e-05
1.00044e-05
1.00048e-05
1.00049e-05
1.00047e-05
1.00043e-05
1.00035e-05
1.00027e-05
1.00017e-05
1.00008e-05
9.99985e-06
9.99898e-06
9.99814e-06
9.99742e-06
9.99676e-06
9.99636e-06
9.99617e-06
9.99624e-06
9.99648e-06
9.99684e-06
9.99729e-06
9.99777e-06
9.99822e-06
9.99852e-06
9.99864e-06
9.99857e-06
9.99828e-06
9.99771e-06
9.99694e-06
9.99616e-06
9.99552e-06
9.99519e-06
9.99534e-06
9.99606e-06
9.99734e-06
9.99896e-06
1.00008e-05
1.00025e-05
1.00039e-05
1.00048e-05
1.0005e-05
1.00047e-05
1.00037e-05
1.00022e-05
1.00005e-05
9.99872e-06
9.99715e-06
9.99592e-06
9.99522e-06
9.9952e-06
9.99586e-06
9.99706e-06
9.99871e-06
1.00006e-05
1.00024e-05
1.0004e-05
1.0005e-05
1.00053e-05
1.00049e-05
1.00036e-05
1.00015e-05
9.99897e-06
9.99628e-06
9.99379e-06
9.99187e-06
9.99092e-06
9.99111e-06
9.99239e-06
9.99465e-06
9.99754e-06
1.00007e-05
1.00035e-05
1.00057e-05
1.00068e-05
1.00069e-05
1.00057e-05
1.00037e-05
1.00013e-05
9.99888e-06
9.99671e-06
9.99516e-06
9.99452e-06
9.99483e-06
9.99595e-06
9.9977e-06
9.99978e-06
1.00019e-05
1.00037e-05
1.0005e-05
1.00057e-05
1.00057e-05
1.00052e-05
1.00041e-05
1.00027e-05
1.00011e-05
9.9995e-06
9.99792e-06
9.99663e-06
9.99573e-06
9.99531e-06
9.9955e-06
9.99635e-06
9.99788e-06
9.9999e-06
1.00023e-05
1.00048e-05
1.00071e-05
1.00089e-05
1.00096e-05
1.00106e-05
1.00104e-05
9.99729e-06
1.00906e-05
9.83919e-06
9.15947e-06
2.12024e-05
3.85626e-05
5.53286e-05
6.9409e-05
8.28927e-05
9.49508e-05
0.00010645
0.000116318
0.000125968
0.00013469
0.000142673
0.00014946
0.000155539
0.000160026
0.000164728
0.000170013
0.00017419
0.000176503
0.000181299
0.000185485
0.000187952
0.000191473
0.000185975
0.000197547
0.000194139
0.00020853
0.000188726
0.00020483
0.000203191
0.00020338
0.000198063
0.000192167
0.000204625
0.000215459
0.000206679
0.000199331
0.000214781
0.000219902
0.00020405
0.000208314
0.000216478
0.000226399
0.000214705
0.000227611
0.000218733
0.000227554
0.000214109
0.000214208
0.000205062
0.000208171
0.000232328
0.000214451
0.00022752
0.000236173
0.000219608
0.000210451
0.000211667
0.000223255
0.000213834
0.000219684
0.000212742
0.00021916
0.000216331
0.000211935
0.000216538
0.000211627
0.000224021
0.000218613
0.000201835
0.000215306
0.00021355
0.000231557
0.000211969
0.000215103
0.000212944
0.0001967
0.000192978
0.000206853
0.000213514
0.000212271
0.000220264
0.000232871
0.000230078
0.000211869
0.000215088
0.000208445
0.000206027
0.000209447
0.000189196
0.000207647
0.000191433
0.000195868
0.000209922
0.000201963
0.000183475
0.00017615
0.000183769
0.000182189
0.000189128
0.000186856
0.000176113
0.00017782
0.000172798
0.000168848
0.000177304
0.000170538
0.000180117
0.000184806
0.000186775
0.000175168
0.000175454
0.000170807
0.000173689
0.000185175
0.000191497
0.000175273
0.00017413
0.000164437
0.000177237
0.000178749
0.000176477
0.000192862
0.000195319
0.000190048
0.00020823
0.000213723
0.000214632
0.000233049
0.000258472
0.000224595
0.000229293
0.000244541
0.000233102
0.000245751
0.000239927
0.000249408
0.000264369
0.000247918
0.00026404
0.000270498
0.000241949
0.00025379
0.000257591
0.000233057
0.000226676
0.000242121
0.000217567
0.000217248
0.000210866
0.000216084
0.000227756
0.000224926
0.000197058
0.000204164
0.000207886
0.000206278
0.000233382
0.000217219
0.00021403
0.000210615
0.000214615
0.000225486
0.0002156
0.000219648
0.000250102
0.000267229
0.00025592
0.00024181
0.000230029
0.000274846
0.000289108
0.00026025
0.000255539
0.000251691
0.000275042
0.00025016
0.00028072
0.000246062
0.000226713
0.000223312
0.000224679
0.000200468
0.000175189
0.000163654
0.000165218
0.000163318
0.000149174
0.000144613
0.00013699
0.000129262
0.000116821
0.000106968
9.64005e-05
8.52718e-05
7.35646e-05
6.1892e-05
5.47158e-05
5.4277e-05
5.88856e-05
6.53634e-05
7.0837e-05
7.50489e-05
7.72463e-05
7.78104e-05
7.70369e-05
7.50781e-05
7.25734e-05
6.9554e-05
6.68858e-05
6.48908e-05
6.42177e-05
6.4778e-05
6.60982e-05
6.78845e-05
6.95839e-05
7.09983e-05
7.17709e-05
7.18541e-05
7.12206e-05
7.0073e-05
6.87995e-05
6.7584e-05
6.68274e-05
6.66495e-05
6.69739e-05
6.76338e-05
6.83339e-05
6.89451e-05
6.93021e-05
6.94098e-05
6.92787e-05
6.90131e-05
6.87243e-05
6.84707e-05
6.83304e-05
6.83456e-05
6.84683e-05
6.8617e-05
6.87658e-05
6.8875e-05
6.89375e-05
6.89432e-05
6.88969e-05
6.88532e-05
6.88422e-05
6.87524e-05
6.88081e-05
6.88892e-05
6.889e-05
6.89806e-05
6.89394e-05
6.89126e-05
6.88507e-05
6.87749e-05
6.8721e-05
6.86782e-05
6.86814e-05
6.87032e-05
6.86656e-05
6.867e-05
6.86559e-05
6.86507e-05
6.85872e-05
6.85661e-05
6.85244e-05
6.84949e-05
6.84351e-05
6.84716e-05
6.84507e-05
6.8439e-05
6.85008e-05
6.8516e-05
6.857e-05
6.86262e-05
6.86342e-05
6.87152e-05
6.87074e-05
6.87394e-05
6.87118e-05
6.86885e-05
6.8632e-05
6.8488e-05
6.84298e-05
6.83355e-05
6.8327e-05
6.83706e-05
6.85005e-05
6.86185e-05
6.8748e-05
6.88625e-05
6.89447e-05
6.89602e-05
6.895e-05
6.88369e-05
6.86509e-05
6.8454e-05
6.82943e-05
6.81986e-05
6.82478e-05
6.84691e-05
6.87995e-05
6.91582e-05
6.95033e-05
6.97352e-05
6.9685e-05
6.93063e-05
6.86917e-05
6.79084e-05
6.71002e-05
6.65531e-05
6.66543e-05
6.75408e-05
6.90176e-05
7.09232e-05
7.30817e-05
7.47016e-05
7.44277e-05
7.12489e-05
6.44042e-05
5.26064e-05
3.65201e-05
2.52847e-05
2.41509e-05
2.5687e-05
2.79525e-05
2.989e-05
2.9806e-05
2.76433e-05
2.56532e-05
2.428e-05
2.28236e-05
2.14997e-05
2.08831e-05
2.08245e-05
2.10031e-05
2.13596e-05
2.205e-05
2.30821e-05
2.41958e-05
2.52438e-05
2.62734e-05
2.74415e-05
2.86985e-05
2.99718e-05
3.11564e-05
3.22823e-05
3.33086e-05
3.4261e-05
3.51538e-05
3.60631e-05
3.69658e-05
3.79006e-05
3.88741e-05
3.99186e-05
4.09486e-05
4.19418e-05
4.28728e-05
4.38096e-05
4.47191e-05
4.56223e-05
4.65247e-05
4.74881e-05
4.84734e-05
4.94813e-05
5.04638e-05
5.14426e-05
5.23641e-05
5.32421e-05
5.40765e-05
5.49325e-05
5.57851e-05
5.6653e-05
5.75224e-05
5.843e-05
5.93223e-05
6.02061e-05
6.107e-05
6.19651e-05
6.28513e-05
6.37412e-05
6.46235e-05
6.54026e-05
6.61491e-05
6.73601e-05
6.82708e-05
6.92383e-05
7.01322e-05
7.06943e-05
7.12987e-05
7.18248e-05
7.22283e-05
7.2528e-05
7.33146e-05
7.35213e-05
7.3564e-05
7.39184e-05
7.42449e-05
7.46034e-05
7.5064e-05
7.47011e-05
7.46078e-05
7.44298e-05
7.40499e-05
7.3716e-05
7.31866e-05
7.21282e-05
7.11418e-05
7.0131e-05
6.92616e-05
6.82272e-05
6.70229e-05
6.57898e-05
6.43644e-05
6.28967e-05
6.12159e-05
5.94973e-05
5.75425e-05
5.5572e-05
5.34522e-05
5.14158e-05
4.92548e-05
4.72294e-05
4.51443e-05
4.32135e-05
4.12133e-05
3.93649e-05
3.75056e-05
3.58229e-05
3.41418e-05
3.26505e-05
3.12101e-05
2.99843e-05
2.87752e-05
2.77101e-05
2.66723e-05
2.57837e-05
2.48759e-05
2.40144e-05
2.33087e-05
2.24859e-05
2.17596e-05
2.09948e-05
2.03299e-05
1.95382e-05
1.88332e-05
1.80884e-05
1.73476e-05
1.66107e-05
1.58736e-05
1.51394e-05
1.43367e-05
1.36634e-05
1.29804e-05
1.23146e-05
1.17075e-05
1.11306e-05
1.06077e-05
1.01571e-05
9.73526e-06
9.39504e-06
9.12493e-06
8.91979e-06
8.77555e-06
8.69225e-06
8.66483e-06
8.68672e-06
8.74334e-06
8.83346e-06
8.94372e-06
9.0748e-06
9.20999e-06
9.35164e-06
9.49256e-06
9.62235e-06
9.74613e-06
9.85865e-06
9.95011e-06
1.00298e-05
1.00949e-05
1.01433e-05
1.01791e-05
1.01998e-05
1.02103e-05
1.02104e-05
1.02022e-05
1.01873e-05
1.01678e-05
1.01462e-05
1.01208e-05
1.00965e-05
1.00721e-05
1.00501e-05
1.00301e-05
1.00136e-05
1.00008e-05
9.99095e-06
9.98349e-06
9.97875e-06
9.97605e-06
9.97478e-06
9.9747e-06
9.97575e-06
9.97767e-06
9.98038e-06
9.98391e-06
9.9879e-06
9.99212e-06
9.99622e-06
9.99993e-06
1.00027e-05
1.00043e-05
1.00047e-05
1.00037e-05
1.00017e-05
9.99903e-06
9.99619e-06
9.99365e-06
9.99189e-06
9.99109e-06
9.99113e-06
9.99188e-06
9.99317e-06
9.99491e-06
9.99684e-06
9.99894e-06
1.00011e-05
1.00032e-05
1.00049e-05
1.00059e-05
1.00061e-05
1.00053e-05
1.00033e-05
1.00005e-05
9.99717e-06
9.99383e-06
9.99103e-06
9.98924e-06
9.98892e-06
9.9902e-06
9.99283e-06
9.99642e-06
1.00002e-05
1.00038e-05
1.00063e-05
1.00077e-05
1.0008e-05
1.00075e-05
1.00066e-05
1.00058e-05
1.00055e-05
1.00058e-05
1.00064e-05
1.00071e-05
1.00075e-05
1.00074e-05
1.00066e-05
1.00051e-05
1.0003e-05
1.00005e-05
9.99793e-06
9.9953e-06
9.99298e-06
9.99108e-06
9.98974e-06
9.98912e-06
9.98944e-06
9.9908e-06
9.99306e-06
9.9961e-06
9.99958e-06
1.00032e-05
1.00063e-05
1.00086e-05
1.00097e-05
1.00094e-05
1.00078e-05
1.00052e-05
1.0002e-05
9.99879e-06
9.99603e-06
9.99407e-06
9.99322e-06
9.99352e-06
9.99478e-06
9.9968e-06
9.99919e-06
1.00016e-05
1.00038e-05
1.00054e-05
1.00063e-05
1.00066e-05
1.00063e-05
1.00057e-05
1.00051e-05
1.00048e-05
1.00046e-05
1.00045e-05
1.00044e-05
1.00042e-05
1.00039e-05
1.00034e-05
1.00027e-05
1.00019e-05
1.00008e-05
9.99965e-06
9.99832e-06
9.99712e-06
9.99612e-06
9.99565e-06
9.99585e-06
9.99665e-06
9.99786e-06
9.99906e-06
9.99992e-06
1.00001e-05
9.99924e-06
9.99748e-06
9.9948e-06
9.99187e-06
9.98877e-06
9.98633e-06
9.98464e-06
9.98412e-06
9.98462e-06
9.98594e-06
9.98784e-06
9.98999e-06
9.99234e-06
9.99454e-06
9.99659e-06
9.9983e-06
9.99972e-06
1.00008e-05
1.00015e-05
1.00018e-05
1.00017e-05
1.00012e-05
1.00004e-05
9.99947e-06
9.99856e-06
9.99784e-06
9.99732e-06
9.99699e-06
9.99686e-06
9.99691e-06
9.99716e-06
9.99762e-06
9.99847e-06
9.9996e-06
1.00008e-05
1.00018e-05
1.00023e-05
1.0002e-05
1.0001e-05
9.99961e-06
9.99928e-06
9.99889e-06
9.9987e-06
9.99854e-06
9.99845e-06
9.99837e-06
9.99824e-06
9.99805e-06
9.99785e-06
9.99795e-06
9.99849e-06
9.99898e-06
9.99929e-06
9.99943e-06
9.99944e-06
9.9993e-06
9.99911e-06
9.99891e-06
9.99878e-06
9.99868e-06
9.99865e-06
9.99867e-06
9.99878e-06
9.99895e-06
9.99924e-06
9.99964e-06
1.00002e-05
1.00009e-05
1.00016e-05
1.00022e-05
1.00027e-05
1.00029e-05
1.00026e-05
1.00019e-05
1.00008e-05
9.99945e-06
9.99804e-06
9.99664e-06
9.99544e-06
9.99447e-06
9.99392e-06
9.99387e-06
9.99445e-06
9.9956e-06
9.99708e-06
9.99871e-06
1.00002e-05
1.00013e-05
1.00019e-05
1.00019e-05
1.00015e-05
1.00006e-05
9.99967e-06
9.99869e-06
9.99789e-06
9.99727e-06
9.99691e-06
9.99676e-06
9.99684e-06
9.99704e-06
9.9973e-06
9.99752e-06
9.99767e-06
9.99774e-06
9.99783e-06
9.99801e-06
9.99837e-06
9.99884e-06
9.99938e-06
9.99994e-06
1.00005e-05
1.00008e-05
1.00009e-05
1.00007e-05
1.00002e-05
9.99961e-06
9.999e-06
9.99835e-06
9.99765e-06
9.99702e-06
9.99647e-06
9.99629e-06
9.99641e-06
9.99689e-06
9.9975e-06
9.99828e-06
9.99905e-06
9.99974e-06
1.00002e-05
1.00006e-05
1.00008e-05
1.00007e-05
1.00005e-05
1.00001e-05
9.9997e-06
9.99925e-06
9.9988e-06
9.99847e-06
9.99824e-06
9.99818e-06
9.99827e-06
9.99859e-06
9.99904e-06
9.99956e-06
1e-05
1.00006e-05
1.0001e-05
1.00012e-05
1.00013e-05
1.00013e-05
1.00013e-05
1.00012e-05
1.00011e-05
1.00011e-05
1.00014e-05
1.00017e-05
1.0002e-05
1.00022e-05
1.00021e-05
1.00019e-05
1.00014e-05
1.00008e-05
1.00001e-05
9.99945e-06
9.99875e-06
9.99823e-06
9.99788e-06
9.99779e-06
9.99794e-06
9.99852e-06
9.99945e-06
1.00007e-05
1.00021e-05
1.00036e-05
1.00047e-05
1.00051e-05
1.00045e-05
1.00023e-05
9.99835e-06
9.99211e-06
9.98489e-06
9.97676e-06
9.97065e-06
9.96862e-06
9.97293e-06
9.98717e-06
1.00096e-05
1.00456e-05
1.00853e-05
1.01367e-05
1.0182e-05
1.02265e-05
1.02545e-05
1.02724e-05
1.02692e-05
1.0239e-05
1.01862e-05
1.00913e-05
9.97711e-06
9.81065e-06
9.64607e-06
9.42925e-06
9.23926e-06
9.01106e-06
8.83117e-06
8.62127e-06
8.48042e-06
8.3784e-06
8.34483e-06
8.36559e-06
8.46938e-06
8.73591e-06
9.06299e-06
9.60482e-06
1.01343e-05
1.0739e-05
1.14641e-05
1.23327e-05
1.3233e-05
1.42063e-05
1.52387e-05
1.63685e-05
1.75707e-05
1.87295e-05
2.00042e-05
2.13745e-05
2.27816e-05
2.41381e-05
2.56145e-05
2.74502e-05
2.90516e-05
3.06129e-05
3.2061e-05
3.37304e-05
3.53973e-05
3.69577e-05
3.86035e-05
4.02455e-05
4.18849e-05
4.33801e-05
4.4931e-05
4.65237e-05
4.80149e-05
4.96158e-05
5.10565e-05
5.26618e-05
5.42742e-05
5.57614e-05
5.72856e-05
5.8839e-05
6.02637e-05
6.17753e-05
6.30951e-05
6.45689e-05
6.60283e-05
6.73533e-05
6.87335e-05
7.01541e-05
7.14371e-05
7.27948e-05
7.39479e-05
7.5215e-05
7.64571e-05
7.75483e-05
7.86588e-05
7.98204e-05
8.09222e-05
8.18691e-05
8.26604e-05
8.38752e-05
8.48418e-05
8.56961e-05
8.65863e-05
8.75504e-05
8.84989e-05
8.91732e-05
8.95799e-05
9.11697e-05
9.20389e-05
9.30175e-05
9.38826e-05
9.40324e-05
9.46668e-05
9.51113e-05
9.44601e-05
9.62501e-05
9.67385e-05
9.65471e-05
9.69337e-05
9.82533e-05
9.86939e-05
9.89253e-05
9.75815e-05
9.92242e-05
9.9202e-05
9.81909e-05
9.78509e-05
9.84923e-05
9.81516e-05
9.81068e-05
9.80955e-05
9.68559e-05
9.63723e-05
9.56574e-05
9.48745e-05
9.40403e-05
9.3104e-05
9.21078e-05
9.10792e-05
9.01819e-05
8.92475e-05
8.83434e-05
8.74326e-05
8.66524e-05
8.58903e-05
8.51139e-05
8.43315e-05
8.34451e-05
8.24703e-05
8.13591e-05
8.02665e-05
7.91672e-05
7.81181e-05
7.70494e-05
7.59423e-05
7.47135e-05
7.34084e-05
7.20735e-05
7.0855e-05
6.97984e-05
6.88997e-05
6.81121e-05
6.74824e-05
6.68551e-05
6.5983e-05
6.46031e-05
6.29988e-05
6.15267e-05
6.04001e-05
5.94589e-05
5.88979e-05
5.86463e-05
5.84448e-05
5.7901e-05
5.72919e-05
5.67443e-05
5.62342e-05
5.58176e-05
5.54525e-05
5.53518e-05
5.58595e-05
5.6681e-05
5.79511e-05
5.94017e-05
6.1039e-05
6.27979e-05
6.48773e-05
6.70359e-05
6.94964e-05
7.17644e-05
7.41651e-05
7.63491e-05
7.85411e-05
8.00429e-05
8.22644e-05
8.43849e-05
8.71153e-05
8.97484e-05
9.3111e-05
9.69253e-05
0.000101387
0.00010443
0.000108766
0.000112975
0.00011513
0.00011515
0.000111867
0.000105227
9.65045e-05
8.78137e-05
8.25556e-05
8.79413e-05
0.000119396
0.000209358
0.000276015
0.000341462
0.000347822
0.000332354
0.000354406
0.000340865
0.000331761
0.000334235
0.000346985
0.000355374
0.000376207
0.000343316
0.000345418
0.000362199
0.000340151
0.000344118
0.000352438
0.000330248
0.000324001
0.000334537
0.000332831
0.000334542
0.000337304
0.000339661
0.000348635
0.000342099
0.000342693
0.000338028
0.000352236
0.000339929
0.000325341
0.000316512
0.000346357
0.000330077
0.000341961
0.000340282
0.000353957
0.000374085
0.000377876
0.000351824
0.000327456
0.00032717
0.000350745
0.000344307
0.000344053